ITEM: TIMESTEP
0
ITEM: NUMBER OF ATOMS
108
ITEM: BOX BOUNDS pp pp pp
0.0000000000000000e+00 1.2150000000000000e+01
0.0000000000000000e+00 1.2149999999999990e+01
0.0000000000000000e+00 1.2149999999999990e+01
ITEM: ATOMS id type xsu ysu zsu fx fy fz 
1 1                    0                    0                    0 -5.55111512312578e-16 2.32730501537048e-14 2.34534613952064e-14 
2 1                    0    0.166666666666629    0.166666666666629 -1.38777878078145e-16 9.71445146547012e-17 2.63677968348475e-16 
3 1    0.166666666666629                    0    0.166666666666629  1.0547118733939e-15 2.37310171513627e-14  2.4980018054066e-16 
4 1    0.166666666666629    0.166666666666629                    0 1.13797860024079e-15 1.21430643318376e-15 2.44734787990808e-14 
5 1                    0    0.333333333333371                    0 -3.19189119579733e-16 -7.63278329429795e-17 2.19685380997703e-14 
6 1                    0                  0.5    0.166666666666629 -6.38378239159465e-16 3.13192126313172e-16 5.27355936696949e-16 
7 1    0.166666666666629    0.333333333333371    0.166666666666629 1.94289029309402e-16 -9.08995101411847e-16 3.59087759527199e-16 
8 1    0.166666666666629                  0.5                    0 1.49880108324396e-15 1.78781550111071e-15 2.45278481498992e-14 
9 1                    0    0.666666666666629                    0 -5.27355936696949e-16 9.29811783123569e-16 2.32938668354166e-14 
10 1                    0    0.833333333333371    0.166666666666629 -5.96744875736022e-15 -2.47198095326695e-14 1.11022302462516e-15 
11 1    0.166666666666629    0.666666666666629    0.166666666666629 2.05391259555654e-15 1.26634813746307e-16 -4.66640615037761e-16 
12 1    0.166666666666629    0.833333333333371                    0 2.88657986402541e-15 -2.39183672867682e-14 2.31065167000111e-14 
13 1    0.333333333333371                    0                    0 -1.00855196590033e-15 2.29551010903599e-14 2.30938688040427e-14 
14 1    0.333333333333371    0.166666666666629    0.166666666666629 -1.46917525888079e-15 3.33371839248559e-16 2.90003752349138e-16 
15 1                  0.5                    0    0.166666666666629 2.07305554016449e-15 2.38018595989393e-14 1.52655665885959e-16 
16 1                  0.5    0.166666666666629                    0 1.95291916318951e-15 1.02695629777827e-15 2.45512838574838e-14 
17 1    0.333333333333371    0.333333333333371                    0 -3.11816544806831e-16 -5.53901949263899e-16 2.32203071061452e-14 
18 1    0.333333333333371                  0.5    0.166666666666629 -3.60307486971245e-16 1.07339308014863e-15 -4.15988044791954e-16 
19 1                  0.5    0.333333333333371    0.166666666666629 1.41214510655716e-15 -1.12757025938492e-16 3.33348122326035e-16 
20 1                  0.5                  0.5                    0 2.86648146625296e-15 1.02176906800928e-15 2.46263614697966e-14 
21 1    0.333333333333371    0.666666666666629                    0 -2.53922859301536e-15 1.48466579742018e-15 2.38161947845386e-14 
22 1    0.333333333333371    0.833333333333371    0.166666666666629 -2.80542733141487e-15 -2.47379631427951e-14 -4.12911621127526e-17 
23 1                  0.5    0.666666666666629    0.166666666666629 -3.6120664305677e-16 -2.60208521396521e-16 1.97758476261356e-16 
24 1                  0.5    0.833333333333371                    0 -5.8261636617582e-16 -2.42583730880597e-14 2.46768886791662e-14 
25 1    0.666666666666629                    0                    0 1.81799020282369e-15 2.40953090813179e-14 2.42913328341032e-14 
26 1    0.666666666666629    0.166666666666629    0.166666666666629 1.04083408558608e-16 4.04190569902596e-16  4.0766001685455e-16 
27 1    0.833333333333371                    0    0.166666666666629 2.08166817117217e-16 2.24299745443801e-14 2.22044604925031e-16 
28 1    0.833333333333371    0.166666666666629                    0 1.94289029309402e-16 1.23512311489549e-15  2.3189783426858e-14 
29 1    0.666666666666629    0.333333333333371                    0 1.08246744900953e-15 1.22921421305544e-16 2.34395836073986e-14 
30 1    0.666666666666629                  0.5    0.166666666666629 1.66533453693773e-16                    0 9.71445146547012e-17 
31 1    0.833333333333371    0.333333333333371    0.166666666666629 -1.38777878078145e-16 -5.70425867998936e-17 3.88578058618805e-16 
32 1    0.833333333333371                  0.5                    0 2.77555756156289e-16 1.26287869051112e-15 2.33493779866478e-14 
33 1    0.666666666666629    0.666666666666629                    0 1.60982338570648e-15 4.77048955893622e-16 2.45012343746964e-14 
34 1    0.666666666666629    0.833333333333371    0.166666666666629 9.97465998686664e-16 -2.32730501537048e-14 9.71445146547012e-17 
35 1    0.833333333333371    0.666666666666629    0.166666666666629 2.66453525910038e-15 1.38777878078145e-15 1.42941214420489e-15 
36 1    0.833333333333371    0.833333333333371                    0 1.66533453693773e-15 -2.39530617562878e-14 2.40224506953268e-14 
37 1                    0                    0    0.333333333333371 -2.77555756156289e-16 2.30891694652513e-14 -8.88178419700125e-16 
38 1                    0    0.166666666666629                  0.5 -5.68989300120393e-16 1.02695629777827e-15 9.47159017883337e-16 
39 1    0.166666666666629                    0                  0.5 1.41553435639707e-15 2.41959230429245e-14 1.55812049460607e-15 
40 1    0.166666666666629    0.166666666666629    0.333333333333371 8.32667268468867e-17 3.90312782094782e-16 -6.24500451351651e-16 
41 1                    0    0.333333333333371    0.333333333333371 -9.71445146547012e-17 6.93889390390723e-17 1.17961196366423e-16 
42 1                    0                  0.5                  0.5 -4.96824803519758e-15 1.97201467395242e-15 8.92854041568969e-16 
43 1    0.166666666666629    0.333333333333371                  0.5 -1.72084568816899e-15 -2.53269627492614e-16 1.02348685082632e-15 
44 1    0.166666666666629                  0.5    0.333333333333371 -1.84574577843932e-15 7.70252239692037e-16 -2.0122792321331e-16 
45 1                    0    0.666666666666629    0.333333333333371 -5.60662627435704e-15 6.24500451351651e-17 2.63677968348475e-16 
46 1                    0    0.833333333333371                  0.5 -5.32907051820075e-15 -2.64267774330307e-14 1.73472347597681e-15 
47 1    0.166666666666629    0.666666666666629                  0.5 5.55111512312578e-17 5.06539254985228e-16 7.52869988573934e-16 
48 1    0.166666666666629    0.833333333333371    0.333333333333371 -1.20736753927986e-15 -2.4605317783255e-14 -9.35015953551499e-16 
49 1    0.333333333333371                    0    0.333333333333371 -3.76163943743846e-16  2.4120791220503e-14 -1.22018484183771e-15 
50 1    0.333333333333371    0.166666666666629                  0.5 -3.75540527494667e-16 -1.10700429942559e-16 1.48073217641313e-15 
51 1                  0.5                    0                  0.5 2.75899637337818e-15  2.4495620240322e-14   7.950827225333e-16 
52 1                  0.5    0.166666666666629    0.333333333333371 1.43258134858906e-15  2.4980018054066e-16 -3.46944695195361e-16 
53 1    0.333333333333371    0.333333333333371    0.333333333333371 -9.20311461587164e-16 -1.06593336587912e-15 -9.09713385351119e-16 
54 1    0.333333333333371                  0.5                  0.5 7.46581615973518e-16 1.84680401059794e-15 6.91422830448318e-16 
55 1                  0.5    0.333333333333371                  0.5 2.33746534497939e-15 -1.21159592775255e-17 6.28417131699754e-16 
56 1                  0.5                  0.5    0.333333333333371 2.38239874876534e-15 4.31658154316159e-16 1.36907629330607e-16 
57 1    0.333333333333371    0.666666666666629    0.333333333333371 -1.19655262260931e-15  6.7776527120679e-16 -2.93649382154121e-16 
58 1    0.333333333333371    0.833333333333371                  0.5 -1.38821246165044e-15 -2.52308109572209e-14 1.80403448798473e-15 
59 1                  0.5    0.666666666666629                  0.5 4.76981193257842e-16 -1.52655665885959e-16 -6.29955343531968e-17 
60 1                  0.5    0.833333333333371    0.333333333333371 -4.78770126842443e-16 -2.48566629518915e-14 -9.68070567285151e-16 
61 1    0.666666666666629                    0    0.333333333333371 1.00613961606655e-15 2.43693953905222e-14 -5.13478148889135e-16 
62 1    0.666666666666629    0.166666666666629                  0.5 2.91433543964104e-16 4.61436444609831e-16 5.13478148889135e-16 
63 1    0.833333333333371                    0                  0.5 2.42861286636753e-16 2.29399832463173e-14 1.08940634291343e-15 
64 1    0.833333333333371    0.166666666666629    0.333333333333371 -7.63278329429795e-17 2.63677968348475e-16 -7.97972798949331e-17 
65 1    0.666666666666629    0.333333333333371    0.333333333333371 8.35343892582191e-17 5.67579837296162e-17 4.27074012005618e-17 
66 1    0.666666666666629                  0.5                  0.5 6.93889390390723e-16 8.15320033709099e-16 -4.63171168085807e-16 
67 1    0.833333333333371    0.333333333333371                  0.5 1.81799020282369e-15 1.30227588695381e-15 2.24820162486594e-15 
68 1    0.833333333333371                  0.5    0.333333333333371  1.8249290967276e-15 2.11983208764366e-15 1.16573417585641e-15 
69 1    0.666666666666629    0.666666666666629    0.333333333333371 1.52829138233557e-15 -3.05311331771918e-16 4.22893057377971e-16 
70 1    0.666666666666629    0.833333333333371                  0.5 2.24820162486594e-15 -2.46434816997265e-14 7.56339435525888e-16 
71 1    0.833333333333371    0.666666666666629                  0.5  4.3159920082303e-15 2.70616862252382e-16 1.38777878078145e-15 
72 1    0.833333333333371    0.833333333333371    0.333333333333371 3.36932765758816e-15 -2.59568706589483e-14 -8.46030060244751e-16 
73 1                    0                    0    0.666666666666629 -5.96744875736022e-16 2.25514051876985e-14 -1.38777878078145e-17 
74 1                    0    0.166666666666629    0.833333333333371 -6.43929354282591e-15 3.88578058618805e-15 -2.51881848711832e-14 
75 1    0.166666666666629                    0    0.833333333333371 3.40005801291454e-15 1.81504117291453e-14 -2.48481790698918e-14 
76 1    0.166666666666629    0.166666666666629    0.666666666666629 1.80411241501588e-15 1.47278023110431e-15 3.92047505570758e-16 
77 1                    0    0.333333333333371    0.666666666666629 -5.68989300120393e-15 -2.92127433354494e-15 7.49400541621981e-16 
78 1                    0                  0.5    0.833333333333371 -4.77395900588817e-15 -1.29398851659787e-15 -2.62290189567693e-14 
79 1    0.166666666666629    0.333333333333371    0.833333333333371 -1.4432899320127e-15  -2.468511506315e-15 -2.52593085336983e-14 
80 1    0.166666666666629                  0.5    0.666666666666629 -4.16333634234434e-16 -4.45823933326039e-16 5.20417042793042e-18 
81 1                    0    0.666666666666629    0.666666666666629 -5.41233724504764e-15 1.33226762955019e-15 -5.41233724504764e-16 
82 1                    0    0.833333333333371    0.833333333333371 -5.28743715477731e-15 -2.34950947586299e-14 -2.61700383585861e-14 
83 1    0.166666666666629    0.666666666666629    0.833333333333371 9.99200722162641e-16 1.73298875250083e-15 -2.37032615757471e-14 
84 1    0.166666666666629    0.833333333333371    0.666666666666629 1.04083408558608e-15 -2.31203944878189e-14 1.35828848168984e-15 
85 1    0.333333333333371                    0    0.666666666666629 -2.66261080024421e-15 2.30807025239105e-14 5.54826909242301e-16 
86 1    0.333333333333371    0.166666666666629    0.833333333333371 -2.94892148894332e-15 1.55498647270123e-15 -2.5147415481366e-14 
87 1                  0.5                    0    0.833333333333371 -5.4917550541822e-16 2.00413517975184e-14 -2.52436960224145e-14 
88 1                  0.5    0.166666666666629    0.666666666666629 -3.36164961004144e-16 1.85962356624714e-15 -2.20309881449055e-16 
89 1    0.333333333333371    0.333333333333371    0.666666666666629 -1.4528851212392e-15 -2.47701232897364e-15 1.37338260880991e-15 
90 1    0.333333333333371                  0.5    0.833333333333371 -1.37414493846244e-15 -7.06293340870315e-16 -2.46439729788359e-14 
91 1                  0.5    0.333333333333371    0.833333333333371 -6.83467497007706e-16 -2.24486770318555e-15 -2.54184897414099e-14 
92 1                  0.5                  0.5    0.666666666666629 2.06167819361697e-16 -1.31887095645641e-15 -4.64905891561784e-16 
93 1    0.333333333333371    0.666666666666629    0.666666666666629 -3.2172886316878e-15 2.08485979131742e-15 2.96309065608499e-16 
94 1    0.333333333333371    0.833333333333371    0.833333333333371 -4.51972714896748e-15 -2.23702553334669e-14 -2.50847621483235e-14 
95 1                  0.5    0.666666666666629    0.833333333333371 -3.34801630863524e-15 1.26981758441502e-15 -2.38004060904018e-14 
96 1                  0.5    0.833333333333371    0.666666666666629 -2.91433543964104e-15 -2.34048891378791e-14 6.52256026967279e-16 
97 1    0.666666666666629                    0    0.666666666666629 1.85962356624714e-15 2.37518338330744e-14 -3.22658566531686e-16 
98 1    0.666666666666629    0.166666666666629    0.833333333333371 1.63410951437015e-15 2.10595429983584e-15 -2.38212227721135e-14 
99 1    0.833333333333371                    0    0.833333333333371 1.98105420956551e-15  1.9744622603568e-14 -2.51465515077598e-14 
100 1    0.833333333333371    0.166666666666629    0.666666666666629 2.81719092498633e-15 3.80251385934116e-15 1.60982338570648e-15 
101 1    0.666666666666629    0.333333333333371    0.666666666666629 2.00707506170517e-15 -2.26685797965771e-15 6.03683769639929e-16 
102 1    0.666666666666629                  0.5    0.833333333333371 2.50494069931051e-15 -1.88564441838679e-15 -2.41300035508374e-14 
103 1    0.833333333333371    0.333333333333371    0.833333333333371 3.46647217224286e-15 -3.2607854675952e-15 -2.65882557940952e-14 
104 1    0.833333333333371                  0.5    0.666666666666629 3.60822483003176e-15 -3.57353036051222e-16 -1.2490009027033e-16 
105 1    0.666666666666629    0.666666666666629    0.666666666666629 3.06005221162309e-15 4.30211422042248e-16 -8.06646416329215e-16 
106 1    0.666666666666629    0.833333333333371    0.833333333333371  3.6498581934552e-15 -2.2310820725624e-14 -2.43940609899462e-14 
107 1    0.833333333333371    0.666666666666629    0.833333333333371 3.35322047906317e-15 1.87350135405495e-15 -2.52957377266938e-14 
108 1    0.833333333333371    0.833333333333371    0.666666666666629 4.13558076672871e-15 -2.48100151534203e-14 8.60422844084496e-16 
ITEM: TIMESTEP
100
ITEM: NUMBER OF ATOMS
108
ITEM: BOX BOUNDS pp pp pp
-2.9820602259827744e-02 1.2179820602259834e+01
-2.9820602259827744e-02 1.2179820602259824e+01
-2.9820602259827744e-02 1.2179820602259824e+01
ITEM: ATOMS id type xsu ysu zsu fx fy fz 
1 1 0.000969224052255413  -0.0173449358463245   0.0158136857660338  -0.0789044493443986   0.0938058981725046   -0.665347319362835 
2 1 -0.00584754114225916     0.14551821656562    0.171518057985395  -0.0206920677228793    0.235243244113323    0.588872126868074 
3 1    0.159843410944859 0.000540836535492417     0.18691349540245     0.53659280062686   -0.262503916035071    -0.18240841083685 
4 1     0.16655064356064    0.149131960961768   0.0241227575444327    0.547457640631487    0.171821922883415   -0.358524680194191 
5 1   0.0110058582357624    0.306717707690268    0.026024960442669   -0.292548947079416    0.616998151900801   -0.398893562287162 
6 1    0.015466566215423    0.490519468711227    0.159740627410201   -0.482452931509296    0.169183538678536    0.247168970115555 
7 1    0.180606042769796    0.341842938900641    0.169752463799227    0.238627998265269   -0.323011392979724   0.0595640222543226 
8 1     0.16495300412123    0.504665315845841 -0.00739870892851968   -0.134570569379543   -0.201859217323234     0.26684304420691 
9 1 -0.00623219669472519    0.676955461053581  -0.0118086649346196    0.260792649058214   -0.245625831654851    0.190051744851437 
10 1  0.00622032003968798    0.822071760186532    0.171562357582388   -0.198085139587052   -0.505247214703262   -0.186372251423027 
11 1    0.168785003286303    0.659627869204542    0.164039682705834   -0.254464402098936   0.0539437120607129    0.422260992093932 
12 1    0.164383778592878    0.836251304765142 -0.00125636908899196   0.0843850588598999   0.0620087121217663    0.145912305867514 
13 1    0.338005557384236 -0.00254412085479316 -0.00652426026232433   -0.149219220155496    0.317679726485474     0.29978097312326 
14 1    0.344619054933332    0.178548276303218    0.182339503946537   -0.300799703893798   -0.121452593576537   -0.534012278234617 
15 1    0.503844790762287   0.0110473560732771    0.173678501973654    0.021698998137083   0.0864224748648496    -0.27726744080196 
16 1    0.516479418195786    0.173127557657267 -0.00104105397633703   -0.429865254394568   -0.234224787272921  -0.0644881869261095 
17 1    0.352218373178857    0.330018376074804   0.0118341175935939   -0.309633226615301    0.118106348054024   -0.368819820129073 
18 1    0.340710827593625    0.505546246150402    0.169894642218878   -0.143618051866869  -0.0245536685299313   -0.146334416422825 
19 1     0.50410870062467    0.347604991350636    0.175143356640774    0.208057437007374   0.0344627431372201   -0.507028755080126 
20 1    0.495161065478669    0.522616795694489  -0.0160868188598897   -0.197045182634643   -0.406264024350665    0.030203101641815 
21 1    0.319300219514957    0.674050052996904   0.0123937679170467    0.681510585043184  -0.0205472445871857   -0.503887278489581 
22 1    0.348075375820827     0.84499543207869    0.169178723688447    -0.53504644814211   -0.124289579844444   -0.218138533780999 
23 1    0.507389234489324    0.673162883734449    0.162666922022595   -0.239278133644051    0.135119230431156   -0.119023153758631 
24 1    0.506804752905964    0.844785946409957 -0.00189969040565074   -0.401930331918707   -0.380755858958087   -0.122263008252586 
25 1    0.668268236348354 -0.00645432553494629 -0.00257808387584646   -0.676102527047217    0.527392793508794    0.109795118397708 
26 1    0.663445460649996    0.178091300868914     0.17100530864343   0.0658042246977176   -0.365774667023216     0.23200277678561 
27 1    0.838594476539129  -0.0214624000856816    0.168133146971741   -0.415178586616024    0.105341056770701   0.0327972388905349 
28 1    0.822049215479183    0.142243118073907    0.018185365519571     0.35157567757941    0.613104262354216   -0.324860464074855 
29 1    0.672171532123457    0.336827324073965  0.00524973859535294  -0.0875668246890729   0.0033364561966838  -0.0105392834459518 
30 1    0.658933212825104     0.51172043616873    0.144513836494298    0.414659241030381   -0.250435494177576     0.32017868917883 
31 1    0.842077526079606    0.314659536411909    0.186399740815204    0.313647421568411    0.260296783475429   -0.814410282330356 
32 1    0.851753487896985    0.477384478756676 -0.00746417739782146   -0.244600826828975    0.322501553742331    0.446628936675402 
33 1    0.661391500628838    0.671576197032323  -0.0137848967834771    0.302311161166681    0.192609238705538  -0.0124860544436036 
34 1    0.668111828232782    0.835574493493027    0.151154820167903    0.107651078609754   -0.385766392591423     0.64666990719393 
35 1    0.839402805958116    0.651990604789376     0.14476608695179    -0.15418286041473    0.306461942349022    0.153608265028741 
36 1    0.821937283244552    0.837248985721544  -0.0165390612280021     0.62237356567125   -0.322350282327855    0.209472333918365 
37 1  -0.0084187328770895  -0.0221455225289446    0.328079320715915    0.167712116127592    0.465316291007558    0.729176429656243 
38 1  0.00124234795976008    0.171115232670218    0.500185284429449   0.0165626041930061   -0.290250930250841    0.163535325472361 
39 1    0.179579927275881  0.00738675654906729     0.49084552573629   -0.876218056908521   -0.267425469681687   -0.187658311385342 
40 1    0.177900538121321    0.182091595105703    0.342723844684883   -0.516693905366686   -0.182797913196223   -0.447840662055893 
41 1  0.00962610658621088    0.329376253889791    0.334685033584947   -0.141540553329385   0.0638610044490504   0.0325529798082247 
42 1 -0.00792107116973284    0.499775655477038    0.499419771063458    0.306697231207163    -0.38527810341287  -0.0947500138539289 
43 1     0.15477584529458    0.334965238377436    0.519983253755299    0.515716693407013    0.336341780287377   -0.388177533904169 
44 1    0.173451389652314    0.489394965732004    0.341251241219766  -0.0620799503275339    0.289739118381256 0.000453497843063221 
45 1 -0.00186891431212644    0.651540478138031    0.332530915683492     0.57704102491363    0.392282940227581   -0.340802406092603 
46 1   0.0244160935673108    0.838110848710244    0.502894271643072   -0.628142346327303   -0.267274456517359   -0.240057783404152 
47 1    0.169468916675896    0.656987891337167    0.505415593150019   -0.198253357980477    0.109520497476434   -0.153293107508545 
48 1     0.17099490902001    0.819385013405849    0.326357106300975    0.114071863049405    0.150900307994062    0.232011162089732 
49 1    0.334279604680205   0.0110085950624352    0.329909720975138    0.386909855299914   -0.453495321976933    0.139138727566489 
50 1     0.32881470344762    0.163188033632991    0.497111655767299    0.661649395575088    0.423447009292973    0.528000962672431 
51 1    0.508008693868078   0.0113245228459391    0.497525553633182   -0.382239585267737  -0.0871908121204111   -0.255083753711788 
52 1    0.504210133883021    0.201198712512337    0.333557345329609     0.47427150882943    -1.05587345288962    0.277210265035243 
53 1     0.34374512298632     0.33805726410435    0.352931429103251   -0.617075849299362     0.49702782272762   -0.296395202302826 
54 1    0.334306218612596    0.506826121243421    0.504887906914405  -0.0815776310312198   -0.152561830548111   -0.132110599968035 
55 1    0.498161728795253    0.343170884143092     0.50694302606405   0.0347253583069349   -0.109347374628559    0.134196357304305 
56 1    0.504099194352989     0.50905295183361    0.323939860867426    0.242427493429961   0.0186694505914372    0.495564961371855 
57 1    0.341199069796062    0.665338846482314    0.336575594030933   -0.220373470201535    0.108607637063075  -0.0118309713552112 
58 1     0.32063980924022    0.829825101821825    0.503644037293839   0.0621522476579887   -0.168977221273242   -0.582657220638281 
59 1    0.513771587480505    0.674212498029192    0.498840975255575   -0.487577366440907    -0.26269619818329   -0.201401767370771 
60 1    0.501478605464968    0.825977939209224    0.326511525920978   0.0756679655903308    0.437993906537448    0.232479208111935 
61 1    0.668411135231963 -0.00860074806797684    0.326108668181405   0.0431612707877545    0.637647686240708   -0.170636181895929 
62 1    0.657507332148612    0.180928026639435    0.494258365746987    0.356393797025331   -0.260959823057246    0.231794663690842 
63 1    0.828946841678089 -0.00679171603445639     0.50329518280023    0.241852614511806    0.102395873533534   0.0383699038098472 
64 1    0.838161266953762    0.157632327927217    0.344654038710928   -0.193304961624567   -0.202939287343694  -0.0672046500674154 
65 1      0.6851855054216    0.348995562396681    0.326709834824896   -0.734612031852076   -0.208675287530184    0.301788536497609 
66 1    0.660159065308449    0.496064483635109    0.497882492319832    0.243161317403514    0.272253495260625  -0.0558456942078664 
67 1    0.831329987929166    0.328663192454201    0.503734864680382    0.165763399181022    0.155640408409357   -0.175254168924702 
68 1    0.836928970230588    0.503257029374367    0.317144425069046    0.285751160432811   -0.390724002435357    0.146973725390996 
69 1    0.684015169186068    0.658597310691789    0.329905589089321   -0.585420618556559   0.0622750501752423   -0.227961947747015 
70 1    0.665949864086201    0.835727815999803    0.478665957843305  -0.0541169812223197   -0.159046447021914    0.811073193359228 
71 1    0.848426411723267    0.664164474024915    0.493713872485159   -0.562816429000464    0.373567216857575     0.19363930663977 
72 1     0.82876189809474    0.822730051912117    0.334012717397172    0.523190399660927   0.0238063855532105   -0.393948791068784 
73 1   0.0126379894385309  0.00557170861418399    0.655788332006409   -0.326515390559951   0.0121823331923471    0.229425723492572 
74 1 -0.00816928685810581    0.156772887871739    0.862062033001962    -0.17030041358856 -0.00168219864703834   -0.459526948500793 
75 1    0.156840656380837  0.00758932184180594    0.828648551264791   0.0354310474702302   -0.287963335893491    0.342299602635554 
76 1    0.176072858013413    0.175306383921111    0.669270943003198   -0.498716047871156   -0.248053242585706  0.00537351233608958 
77 1   -0.010603519212907    0.339829218375826    0.671558973895344  -0.0933177101181026   -0.345768881971193    0.388246187014878 
78 1  0.00168477104296016    0.498741487412076    0.835116616394885   -0.217425012452519   -0.113311536862046   0.0220967483692218 
79 1    0.168803356534795    0.315692652198322    0.851316470462621   -0.259375302718408    0.142753045306401   0.0794370249577555 
80 1    0.148678311398271    0.501486822693096    0.677486453937718    0.548210517606563  -0.0826293900996227   -0.337308726131188 
81 1 -0.00597953200718848     0.66586214386291    0.666651106824702    0.326751303480911    0.177977670946363   -0.437234997452977 
82 1 -0.00822273100482107    0.838562306664926    0.823798857746283   0.0360102918709528    0.534594582952478   0.0291614707600603 
83 1    0.159742744049481    0.676393744145344    0.829065792696952   0.0184002308742696    -0.42109808356247    0.439734972753572 
84 1    0.163444173334938    0.824294930809401    0.670346953138164   0.0759691984275816    0.264467219655516  0.00471170382914577 
85 1    0.315056534596124 -0.00915283481185725    0.661200903605504    0.314412772376388    0.442812104686883    0.315534083083931 
86 1    0.330369210902518    0.157793938636473    0.826597343313324    0.265040726735091    0.103386339972528    0.597812347741208 
87 1    0.488890832415336  -0.0151320278457661    0.821220561025257    0.274097363754723    0.565874991224382   0.0614983411778527 
88 1    0.483841519316911     0.17997597459339     0.66743187858151    0.358538951233022   -0.379621912726184   -0.192223109845862 
89 1    0.330569451100928     0.34374501542311     0.67693182445089   -0.287746960486002   -0.281629930916186   -0.335075431691077 
90 1    0.316575529468651    0.489676879739136    0.838608067852078    0.445098198303831    0.379127167561377     0.08347614342853 
91 1    0.508780592366065    0.345820600427828    0.830235835531994  -0.0452580144764929  -0.0523172586496439    0.291306391232911 
92 1    0.488521248684151    0.498880881910509    0.662712354331461    0.640053689551733    0.468471183381347    0.385790601805124 
93 1    0.327046426935112    0.655595764951727    0.677750592605094   -0.075513263736775    0.193153769180388   -0.215510632329434 
94 1    0.325361141124631    0.833395596603168     0.83698652816804   -0.130843907499024   -0.133694197811933  -0.0494011255588627 
95 1    0.493376470381804    0.684502759293991    0.823660866400473    0.212454668831743    -0.18958595117031    0.107141465565632 
96 1    0.474974817692782    0.837645150979029    0.652786197955493    0.694596633285309   -0.121749003539204    0.182470853832079 
97 1    0.657191080015423 -0.00388785506464728    0.662458614823208    -0.29823551141104    0.206424705267298   -0.450402285133359 
98 1    0.653208446830376    0.164589905703792    0.819968330588381   -0.392545552240756    0.364711623956133    0.190088278873991 
99 1    0.799167590327215   0.0113328769485861    0.825005734766023     1.39024530004547   -0.457578333339016    0.295842951654462 
100 1    0.836491481828716    0.162796792257723    0.674458249486747   0.0948710524235922    0.156932590565145   -0.416021674175193 
101 1    0.677808826919659    0.335912500016889    0.669535844368852   -0.406653629910962  -0.0372587320016003  -0.0370172330859148 
102 1    0.675917029534162    0.515393130621646    0.826498185649029   -0.211981946309391   -0.316568047898387  0.00516886979915352 
103 1    0.824149910428446    0.318624737018126    0.844997839879056    0.380354610120372  -0.0436323138031028   -0.235615996201138 
104 1    0.826093067187685    0.506218748266747    0.655783730282906   0.0710356022160068  -0.0715144650166596    0.173642319242353 
105 1    0.664451117307294    0.674674787193112    0.660018411710212   -0.328176014745514   -0.358474126030744  -0.0233566542959948 
106 1    0.668529099159969    0.835600236601977    0.825064592684498   -0.757482766948746   -0.304099039344876    0.063196581510282 
107 1    0.845556978326613    0.673077358278988    0.818926706436741   -0.781971151045787   -0.460078969190385    0.546067667656584 
108 1    0.811838478773325    0.829424337094565    0.663570035800603    0.936290363287537    0.428482049142121   -0.502582834024667 
ITEM: TIMESTEP
200
ITEM: NUMBER OF ATOMS
108
ITEM: BOX BOUNDS pp pp pp
-1.2113746631269962e-02 1.2162113746631286e+01
-1.2113746631269962e-02 1.2162113746631276e+01
-1.2113746631269962e-02 1.2162113746631276e+01
ITEM: ATOMS id type xsu ysu zsu fx fy fz 
1 1  0.00422314501918208   0.0100010880807986  0.00618772136806456   -0.268176375884694   -0.697285905306867   -0.232057658389829 
2 1   0.0166735014153119    0.157432872043501     0.17138127782755   -0.478571491899435    0.242818487686041    0.347085265412955 
3 1     0.17199670781315 -0.00264057292827147    0.175248869848588   -0.119099362573315   -0.269387618607728   -0.171664446594557 
4 1    0.154676492054477    0.169622584569197 -0.00345441451941042    0.845140739833904   0.0788343096596614    0.485950692968936 