LAMMPS (17 Nov 2016)
units metal
dimension 3
boundary p p p
atom_style atomic
read_data structure.inp
  orthogonal box = (0 0 0) to (12.15 12.15 12.15)
  1 by 1 by 1 MPI processor grid
  reading atoms ...
  108 atoms
include potential.inp
pair_style eam/alloy
pair_coeff * * Al.lammps.eam Al
fix 1 all npt temp 400 400 1.0 iso 0.0 0.0 1.0
variable  dumptime equal 100
dump 1 all custom ${dumptime} dump.out id type xsu ysu zsu fx fy fz
dump 1 all custom 100 dump.out id type xsu ysu zsu fx fy fz
dump_modify 1 sort id format line "%d %d %20.15g %20.15g %20.15g %20.15g %20.15g %20.15g"
thermo_style custom step temp pe etotal pxx pyy pzz vol
thermo_modify format  float %20.15g
thermo 100
velocity all create 800 46513 dist gaussian
run 10000
Neighbor list info ...
  1 neighbor list requests
  update every 1 steps, delay 10 steps, check yes
  max neighbors/atom: 2000, page size: 100000
  master list distance cutoff = 8.5
  ghost atom cutoff = 8.5
  binsize = 4.25 -> bins = 3 3 3
Memory usage per processor = 3.93753 Mbytes
Step Temp PotEng TotEng Pxx Pyy Pzz Volume 
       0                  800    -362.880858320022    -351.816189908022     -12399.923154752    -12250.8843094782    -11185.6497893643          1793.613375 
     100     391.697524791504    -357.291929601963    -351.874425564939     -4224.7234073061    -6835.48826932724    -6078.81459058082     1820.15639361167 
     200     401.808781771511    -357.429736879417    -351.872385710253      1182.4345155066     1033.39540270875    -2311.85503612462     1804.36435370191 
     300     400.782331393339    -357.399655885986    -351.856501383167     8427.56563425439     4870.02924675056     4933.90933159576      1791.1633493003 
     400     347.358282483054    -356.614209487424    -351.809954217628    -4189.75762312431    -6962.51236230837    -6714.43589250948     1824.28321476963 
     500     414.812505918016    -357.519841603516    -351.782638064599     9103.67511982277     8012.84180813995     7291.31813092521     1784.88108627089 
     600     403.361078305268     -357.36444011063    -351.785619383437    -5318.84544459523    -6999.19539060927    -8191.08375215344     1819.92937045275 
     700     366.261207989381    -356.842469504525    -351.776770981299     2133.46147015167     2595.36214415152     2677.44062156727     1800.92039499193 
     800     389.198053632113    -357.124938834856    -351.742004572313     1502.32066655526     850.396520780346     3834.73282696197     1800.19906730979 
     900     392.956474886138    -357.138414810615     -351.70349844191    -3319.56155004287    -6379.39157050465    -2499.95572668316     1814.55990559111 
    1000     417.828150784877    -357.432675226972    -351.653762799929      1345.0394694439     3004.85735255546     6661.10841294841     1794.78458525937 
    1100     402.647759240995    -357.174583599032    -351.605628670486    -3392.31595073434    -5211.27001269859    -2179.41807847344     1811.79089438587 
    1200     385.465088597697    -356.887795949299    -351.556491712129     3972.07321597039     1793.82658215394     3122.78620854979     1800.85790978828 
    1300     397.238310820408    -356.994791709986    -351.500653972772     46.1590514402915     -3204.2016729372    -3298.77248084655     1810.98354639252 
    1400     422.565830160321    -357.277049037546    -351.432610546339     2655.32047034416     1287.91450383683    -2869.83015672891     1803.08149808822 
    1500     448.239495848934     -357.54901235456    -351.349485616146    -2610.15726848031    -1789.46105251433    -1410.73939665839      1807.0116468756 
    1600     411.023112021773    -356.942420766401    -351.257627711164    -1801.76319308785    -1623.33395400429    -3782.05046949864     1811.57044536548 
    1700     416.390670831699    -356.912265112568    -351.153234234314     3866.40611586557     2413.88868881712     3306.29658028893     1800.52450779274 
    1800      426.89778359758    -356.946854759498    -351.042501732841    -1163.70748903083    -4372.03278886353    -2204.24764597489     1813.51880380772 
    1900     404.508578348846    -356.519301211298    -350.924609599748     3632.97406071045      1582.5699353748    -527.270638760776     1807.12219559075 
    2000     440.083588828206    -356.883806420467    -350.797082690534    -258.477823753139     930.874297871532    -1460.26933328317     1808.47099921085 
    2100      411.54092444938    -356.365382003466    -350.673427169716     2935.97916403845     13.4245209465899    -2830.96211640638     1812.56435780472 
    2200      436.60675382209    -356.593219563647    -350.554583366796    -1560.06590700658    -1084.66002205416    -377.440817297629     1814.60398771656 
    2300     461.859780157326    -356.827778704495    -350.439872054145    -569.392986932218     1216.02406809057    -973.462595977999     1807.94787816782 
    2400     430.187723446639    -356.295329524309    -350.345473880746     832.476591333916     1588.45262502303     203.136232340362     1811.16549464383 
    2500     459.127763751586    -356.605642106124    -350.255521525306    -2830.20932526041     -1171.1798902098    -2355.02736852893     1815.02145240903 
    2600     450.086123482872    -356.407207224441    -350.182140082965     1981.10841733143     1520.65746098966     851.773987936145     1807.47557363268 
    2700     471.539483027233     -356.64834212053    -350.126557091952    -3216.82121444156    -2412.09085369082    -1472.33681981783     1814.53920247084 
    2800     414.200001371952    -355.818929388652    -350.090197299364     4756.63339388881     819.641053735289     1969.85691557023     1810.76853490124 
    2900     436.746520929545    -356.110902024532    -350.070332731807     2191.89614473314    -2514.35775577014     144.242898039895     1814.61543530786 
    3000     409.943268384783    -355.735743964611    -350.065886049099     3517.28235366096     619.185327083647     1426.12302384621     1812.85979020553 
    3100     456.774891244206    -356.390273474907    -350.072695086726     1621.94293467406    -2152.13071205664    -149.234011961476     1813.56709722387 
    3200     487.702397368995    -356.842341729082      -350.0970100908    -3156.37040405479    -2909.26245466964    -822.634447717025     1813.73544359764 
    3300     481.158974626307    -356.787298220621    -350.132467585999    -2493.22998917565    -1603.88346766244    -3170.33612938411      1815.4595052589 
    3400     416.625728494705    -355.944142823686    -350.181860901558     1897.00813037696     2200.16448967083     219.654642987978     1810.21053290589 
    3500     453.511327680709     -356.51781360299    -350.245373025649     776.629119589078       1753.452348543    -2891.51323221562     1811.73051936836 
    3600     462.625102634687     -356.72435743935      -350.3258657397    -1807.79804729747    -1530.05401804536    -3441.53104933985      1812.8398788507 
    3700       432.6111549477    -356.390522247179    -350.407148521144     1170.40932409052      642.14814099927    -485.902085990466     1808.44199031083 
    3800     420.604773824663    -356.309321920915    -350.492006477323    -843.336194810983    -3295.07457297171     507.788580639037     1816.19840153455 
    3900      447.68963540109    -356.780216425927    -350.588294716924     3081.88350016098    -35.5266635078223     2575.39627845334     1803.20318258733 
    4000     398.796654538121    -356.207547755401    -350.691856822552    -160.883907523028     269.268982349521    -1143.12977382414     1812.19546236304 
    4100     400.678234077548    -356.327207216659    -350.785492466692     3172.79127051162    -1402.12703354953     307.779905465533     1810.42614234526 
    4200     393.600691300159    -356.316950255685    -350.873123835722     2919.93778349201     2149.61900491213     2015.67489870622     1805.84809205478 
    4300     440.012359877936    -357.039297237264    -350.953558663225    -3714.44864269532    -5042.80034302628    -1858.58369331163     1814.50082199215 
    4400     404.267983681759    -356.617354040879    -351.025990054596     4185.08298963745     2206.35011401957     2765.92205237001     1802.66321052633 
    4500     448.815128978398    -357.292299848134     -351.08481162259    -3943.58446056245    -4502.21234619733    -5977.70519432429     1816.54903437206 
    4600     386.825547687613    -356.486507059418    -351.136386536351     2582.01900314903     2998.82732014662     5367.40945761685     1801.32180251011 
    4700     363.259996216901     -356.21155642413    -351.187367167274    -1338.62711313912     1570.79355068032     4171.84323271452      1809.4376752983 
    4800     449.695848415777    -357.446691273603    -351.227021962386    -4413.74090998204    -3237.75288353381    -6465.84904441379     1814.14440670292 
    4900     431.934380746301     -357.23299052328    -351.258977149904     2601.13138217105     5005.90218329996     1777.96105772985      1798.8836991179 
    5000     395.524734518924    -356.749787646178    -351.279350100933    -4828.73068134875    -2928.78897293329    -4590.60789702117     1818.40968465494 
    5100     406.383975287271    -356.928098006268    -351.307468088138     2840.87004530615     5695.07107751912     4050.49589026927     1798.25763810701 
    5200     454.055742116961    -357.619569105062    -351.339598821201     -6312.4229526101    -5700.71083958364    -4715.14384772204     1816.14388236068 
    5300     369.916423677921    -356.477701059835    -351.361447849649     2311.44661181665     3021.73261687555      3504.2521118329     1803.47428430201 
    5400     377.015892323303    -356.596304491493    -351.381859698228     2304.15430767825     3116.42022076724     -136.00603294257      1803.2323015192 
    5500     398.154809858816    -356.905150718065    -351.398337033402    -2529.80491961438    -3189.87557687155    -744.186239241969     1812.06198284678 
    5600     363.909798491531    -356.455012887807    -351.421836322574     3721.35098526329     5196.41038122673     7573.44784445946     1797.61930901182 
    5700     396.140442018324    -356.922961930571    -351.444008636176    -4336.59875951883    -3040.65047372777    -2522.78017639242     1813.38932389175 
    5800      381.72396777288    -356.745926288934    -351.466364878534     5894.35337243214     4270.32874594799     3698.26135240408     1796.67699378208 
    5900     368.732546055454    -356.592384107475    -351.492504913955    -2887.16495039594    -756.479421264546     1703.59102753566     1808.85127240222 
    6000     438.093712855792    -357.574989890827    -351.515787808163    -1801.58468166053    -1094.07647359142    -2747.00057890825     1806.11106562253 
    6100     422.349593893497    -357.382918469608     -351.54147070664     1441.04247343124    -267.008986609215     3571.75100637042     1799.82930635663 
    6200     433.805087601123    -357.558938747517    -351.559051935335    -5901.33932080499    -7057.71915577255    -4846.28109380015     1815.71996785993 
    6300     421.090470125743    -357.405119370736    -351.581086341492     4264.57857725328     723.590282375394     3564.29884217629     1795.56423070716 
    6400     388.639536344435    -356.990008565521    -351.614799063715    -739.531341616466    -2578.53788869162    -3592.06651154485     1811.97148658486 
    6500     397.610991938282    -357.135713088378    -351.636420859924    -591.940566316481    -1350.93786982658     1451.05228883116     1805.29996227641 
    6600     433.545819046976    -357.645946836482    -351.649645925027     2813.67853419381      337.02470506588     913.899246101222     1796.89854570881 
    6700     402.801666726596    -357.231293888395    -351.660210290732    -6065.72080484368    -5029.37369333483    -3922.38138294264      1815.9481947325 
    6800     382.895323893942    -356.976048878626    -351.680286634386     6261.56317964037      6175.8715813202     5167.36593813597     1791.95217150869 
    6900      375.67546597538    -356.907304380076     -351.71139880315    -4102.71299630925    -3428.70036096409    -960.438382784875      1813.2558351835 
    7000     379.492663470928    -357.003050516374    -351.754349908758     1847.91503640531    -134.667238296451     3689.28813105509     1800.43647970523 
    7100     406.569822625657    -357.387954869999    -351.764754527901     251.788307113914     1412.04083356936    -144.626973275777     1800.14323995951 
    7200     384.289286157773     -357.08447988512    -351.769437978095    -4127.34066567992    -5411.05298276545    -3040.75488311568     1815.31714361244 
    7300     364.167078176837    -356.816134239447    -351.779399281205     8758.10519557079     6054.17881769404     8332.11092642315      1786.9097234454 
    7400     420.916573819416    -357.629917451039    -351.808289553005    -7266.52421795152    -10055.9046030357    -10664.5059201803     1822.16897163845 
    7500     406.507147950005    -357.471146142223    -351.848812643254     4180.72723177458     3593.71429470619     3337.65783516116     1793.80390125417 
    7600     377.251344328461    -357.089627405791    -351.871926114571     510.241090351894    -2168.89373569968    -889.887427468363     1805.37524522241 
    7700     364.270965067195     -356.91777708917    -351.879605288436    -3554.97383261057    -4572.36585636293    -2987.73940929941     1813.43555166427 
    7800     382.361126135094    -357.166950356787    -351.878576513882     7179.75646158019     8877.73872660303     8374.60214634132     1785.47899458228 
    7900     354.133973645019    -356.778825978034    -351.880857238276    -4949.58048650284    -7298.42143876848    -6714.95113398826     1820.73403047554 
    8000     419.721923473859    -357.721264121788    -351.916159236181     5004.09041009087     6254.19660325925     2819.66114554932     1788.68595579185 
    8100     340.804451509904    -356.675450360166    -351.961840048553    -741.764245678282     692.222396673347     1362.55722967306     1805.52831357241 
    8200     409.652229327643    -357.641635802686    -351.975803200502    -1349.02657782144    -5678.72694206487    -6792.70875994667     1810.88278100872 
    8300     393.725025320035    -357.406659543022    -351.961113479681     10692.1178150459      7376.4056965769     5881.07678964756      1783.8570419049 
    8400     346.382247878575    -356.743158814989    -351.952402919265    -6612.96582829395    -10282.0559013326     -8025.2595410666     1824.78119196319 
    8500     379.266748819274     -357.22195310081    -351.976377081582     8307.27426787922     5958.61169736494      10370.799475883     1783.91037013432 
    8600      358.36323855097    -356.974036519622    -352.017573512601     142.546860416684    -4029.47486110631    -4748.99788501348     1810.08228581818 
    8700     393.260777226302    -357.469339439264    -352.030214314946    -1193.01178297631    -3448.22218333727    -1889.21363798129     1806.55404083351 
    8800     409.962846717927    -357.680161866422    -352.010033166205     4926.52109921153     3741.15303310692     5237.68580815881     1788.66026254352 
    8900     361.522060795039    -356.966300987216    -351.966148829316    -4738.27887344517    -9081.49612448572    -7221.78238298546     1823.35145312887 
    9000     400.731238521563    -357.495072622776    -351.952624777062     10869.3007157579     5750.59905851952     6357.59496002425     1785.89516450529 
    9100     339.381038681643    -356.653205608814    -351.959282285898     -1764.5327047153    -5206.75131620938    -1773.90643404645     1814.59561741577 
    9200      399.37058175624    -357.488004904647    -351.964376078847      276.35907951167      1673.6797036025     1280.28820424739     1799.66205711717 
    9300     393.823473979757    -357.365827136676    -351.918919446116     4602.26460123354     1565.44208584989     1951.48641221733     1795.52146643884 
    9400       343.9722250625     -356.60359886326    -351.846175596692     -4183.9171639782    -4245.39867642639    -3191.13400512557     1817.92504906045 
    9500     441.715355511044    -357.906632317754    -351.797339891231      3912.4945280339     3072.70505685587      5282.4178046917     1790.14140405619 
    9600     397.948316539856    -357.273620626988    -351.769662917454    -4585.18633141946    -2300.31467551108    -2629.10240956743     1813.13110325048 
    9700     404.016077952962    -357.317134651274    -351.729254731691    -1117.67814129456    -3951.18413273396    -3144.95896730078     1811.21564550755 
    9800     376.726012624627    -356.862253428204    -351.651817913371     3195.22344128909     10045.0366588135     9701.03862076096       1791.011778119 
    9900     415.642157729593    -357.312688977766    -351.564010661108    -11833.8252526862      -9076.080632155    -10013.1202434249     1829.17272857411 
   10000     424.108682445327    -357.370641648774    -351.504864221389     4746.85519383584     10193.0847026485     10909.6615015181     1785.73281885202 
Loop time of 2.75654 on 1 procs for 10000 steps with 108 atoms

Performance: 313.437 ns/day, 0.077 hours/ns, 3627.739 timesteps/s
99.9% CPU use with 1 MPI tasks x no OpenMP threads

MPI task timing breakdown:
Section |  min time  |  avg time  |  max time  |%varavg| %total
---------------------------------------------------------------
Pair    | 2.569      | 2.569      | 2.569      |   0.0 | 93.20
Neigh   | 0          | 0          | 0          |   0.0 |  0.00
Comm    | 0.071015   | 0.071015   | 0.071015   |   0.0 |  2.58
Output  | 0.034822   | 0.034822   | 0.034822   |   0.0 |  1.26
Modify  | 0.062865   | 0.062865   | 0.062865   |   0.0 |  2.28
Other   |            | 0.01884    |            |       |  0.68

Nlocal:    108 ave 108 max 108 min
Histogram: 1 0 0 0 0 0 0 0 0 0
Nghost:    1580 ave 1580 max 1580 min
Histogram: 1 0 0 0 0 0 0 0 0 0
Neighs:    7560 ave 7560 max 7560 min
Histogram: 1 0 0 0 0 0 0 0 0 0

Total # of neighbors = 7560
Ave neighs/atom = 70
Neighbor list builds = 0
Dangerous builds = 0
Total wall time: 0:00:02
