ITEM: TIMESTEP
0
ITEM: NUMBER OF ATOMS
108
ITEM: BOX BOUNDS pp pp pp
0.0000000000000000e+00 1.2150000000000000e+01
0.0000000000000000e+00 1.2149999999999990e+01
0.0000000000000000e+00 1.2149999999999990e+01
ITEM: ATOMS id type xsu ysu zsu fx fy fz 
1 1                    0                    0                    0 -2.22044604925031e-16 2.34534613952064e-14  2.3557544803765e-14 
2 1                    0    0.166666666666629    0.166666666666629 -5.55111512312578e-17 -2.4980018054066e-16 -2.22044604925031e-16 
3 1    0.166666666666629                    0    0.166666666666629  1.2490009027033e-15 2.37206088105069e-14 -2.58473797920544e-16 
4 1    0.166666666666629    0.166666666666629                    0 1.33226762955019e-15 7.94503351997378e-16  2.4459601011273e-14 
5 1                    0    0.333333333333371                    0 -2.22044604925031e-16 7.14706072102445e-16 2.21628271290797e-14 
6 1                    0                  0.5    0.166666666666629 -4.71844785465692e-16 -4.75747913286639e-16 -1.38777878078145e-17 
7 1    0.166666666666629    0.333333333333371    0.166666666666629 1.38777878078145e-16  9.0205620750794e-17 -2.4980018054066e-16 
8 1    0.166666666666629                  0.5                    0 1.83186799063151e-15 1.22211268882566e-15 2.45088237899038e-14 
9 1                    0    0.666666666666629                    0 -5.55111512312578e-16 1.30798150088651e-15 2.33701946683595e-14 
10 1                    0    0.833333333333371    0.166666666666629 -5.96744875736022e-15 -2.49991000123018e-14 5.55111512312578e-16 
11 1    0.166666666666629    0.666666666666629    0.166666666666629 2.08166817117217e-15 6.34908792207511e-16 -1.01828268039839e-15 
12 1    0.166666666666629    0.833333333333371                    0 2.94209101525666e-15 -2.40502062709425e-14 2.32244778963775e-14 
13 1    0.333333333333371                    0                    0 -8.32667268468867e-16  2.3185880299037e-14 2.32561365998141e-14 
14 1    0.333333333333371    0.166666666666629    0.166666666666629 -1.3314002678122e-15 -1.72550775751068e-16 -1.3162214373974e-16 
15 1                  0.5                    0    0.166666666666629 1.98408997564847e-15 2.39116994434074e-14 -2.4980018054066e-16 
16 1                  0.5    0.166666666666629                    0 1.93985452701106e-15 9.15933995315754e-16  2.4615997174654e-14 
17 1    0.333333333333371    0.333333333333371                    0 -1.40512601554121e-16 4.46257614195034e-16  2.2921118128516e-14 
18 1    0.333333333333371                  0.5    0.166666666666629 -2.00360561475321e-16 3.39326240188652e-16 -8.92840489041813e-16 
19 1                  0.5    0.333333333333371    0.166666666666629 1.35986100698105e-15 5.71591385334358e-16 -2.8124204354274e-16 
20 1                  0.5                  0.5                    0 2.90739654573713e-15 2.73544208118093e-16 2.48216703267745e-14 
21 1    0.333333333333371    0.666666666666629                    0 -2.55611504185183e-15  2.0721271920543e-15 2.38162896522287e-14 
22 1    0.333333333333371    0.833333333333371    0.166666666666629 -3.07739944638286e-15 -2.47771096174854e-14 -6.01406945077709e-16 
23 1                  0.5    0.666666666666629    0.166666666666629 -1.33707082106225e-16 6.93889390390723e-17 -1.89084858881472e-16 
24 1                  0.5    0.833333333333371                    0 -5.68989300120393e-16 -2.45845011015433e-14 2.48065457064683e-14 
25 1    0.666666666666629                    0                    0 1.90125692967058e-15 2.43936815191859e-14 2.45185816094562e-14 
26 1    0.666666666666629    0.166666666666629    0.166666666666629 -1.04083408558608e-16 -1.04083408558608e-16 -1.70002900645727e-16 
27 1    0.833333333333371                    0    0.166666666666629 2.15105711021124e-16 2.24716079078036e-14 -2.4980018054066e-16 
28 1    0.833333333333371    0.166666666666629                    0 1.66533453693773e-16 8.74300631892311e-16 2.33459085396959e-14 
29 1    0.666666666666629    0.333333333333371                    0 9.57567358739198e-16 1.04343617080005e-15 2.35783614854768e-14 
30 1    0.666666666666629                  0.5    0.166666666666629 1.94289029309402e-16 -7.35522753814166e-16 -3.24393290007663e-16 
31 1    0.833333333333371    0.333333333333371    0.166666666666629 -1.2490009027033e-16 8.01659086335782e-16 -2.91433543964104e-16 
32 1    0.833333333333371                  0.5                    0 3.60822483003176e-16 6.66133814775094e-16 2.34950947586299e-14 
33 1    0.666666666666629    0.666666666666629                    0  1.6306400674182e-15 9.73179870022989e-16 2.46296039119187e-14 
34 1    0.666666666666629    0.833333333333371    0.166666666666629 7.04297731246584e-16 -2.34048891378791e-14 -3.36536354339501e-16 
35 1    0.833333333333371    0.666666666666629    0.166666666666629 2.65759636519647e-15 1.87350135405495e-15 8.60422844084496e-16 
36 1    0.833333333333371    0.833333333333371                    0 1.73472347597681e-15 -2.4161228573405e-14 2.41681674673089e-14 
37 1                    0                    0    0.333333333333371 -2.22044604925031e-16 2.31203944878189e-14 -1.31838984174237e-16 
38 1                    0    0.166666666666629                  0.5 -3.60822483003176e-16 6.38378239159465e-16 2.77555756156289e-16 
39 1    0.166666666666629                    0                  0.5 1.66533453693773e-15  2.4230617512444e-14 1.01763215909489e-15 
40 1    0.166666666666629    0.166666666666629    0.333333333333371 2.22044604925031e-16 -1.17961196366423e-16 1.21430643318376e-16 
41 1                    0    0.333333333333371    0.333333333333371 -2.77555756156289e-16 1.02695629777827e-15 8.11850586757146e-16 
42 1                    0                  0.5                  0.5 -4.82947015711943e-15 1.21560747579075e-15 -1.97324795392362e-17 
43 1    0.166666666666629    0.333333333333371                  0.5 -1.69309011255336e-15   6.956241138667e-16 4.71844785465692e-16 
44 1    0.166666666666629                  0.5    0.333333333333371 -1.60982338570648e-15 4.05493773215086e-17 7.04297731246584e-16 
45 1                    0    0.666666666666629    0.333333333333371 -5.52335954751015e-15 3.92047505570758e-16 1.09114106638941e-15 
46 1                    0    0.833333333333371                  0.5 -5.07927033766009e-15 -2.6624535909292e-14 1.02695629777827e-15 
47 1    0.166666666666629    0.666666666666629                  0.5 3.88578058618805e-16 1.01828268039839e-15 -1.38777878078145e-17 
48 1    0.166666666666629    0.833333333333371    0.333333333333371 -1.02695629777827e-15 -2.47666470665209e-14 -1.6826817716975e-16 
49 1    0.333333333333371                    0    0.333333333333371 -1.53523027623947e-16  2.4240429542105e-14 -4.05328982183706e-16 
50 1    0.333333333333371    0.166666666666629                  0.5 -1.38777878078145e-16 -3.64888241149997e-16 9.34528062573881e-16 
51 1                  0.5                    0                  0.5 2.81458883977237e-15 2.47179663889763e-14 4.82469966756049e-18 
52 1                  0.5    0.166666666666629    0.333333333333371 1.35934342799246e-15 -8.32667268468867e-17 3.57353036051222e-16 
53 1    0.333333333333371    0.333333333333371    0.333333333333371 -6.31439345255558e-16 -1.36663683841798e-16 -4.96564594998361e-17 
54 1    0.333333333333371                  0.5                  0.5 8.34401991944844e-16 1.33584571278994e-15 6.27210956782864e-17 
55 1                  0.5    0.333333333333371                  0.5 2.45723580372115e-15 9.95731275210687e-16 -2.02203705168547e-17 
56 1                  0.5                  0.5    0.333333333333371 2.39998992901391e-15 -3.47974687259223e-16 7.65013052905772e-16 
57 1    0.333333333333371    0.666666666666629    0.333333333333371 -1.37693675905659e-15  1.0544950329594e-15 6.63369099235256e-16 
58 1    0.333333333333371    0.833333333333371                  0.5 -1.77852524374522e-15 -2.54808110375371e-14 1.16589680618229e-15 
59 1                  0.5    0.666666666666629                  0.5  4.9591407369487e-16  2.4980018054066e-16 -6.95082012780457e-16 
60 1                  0.5    0.833333333333371    0.333333333333371 -6.07207426700507e-16 -2.51682897613181e-14 -1.03649727689614e-16 
61 1    0.666666666666629                    0    0.333333333333371 9.99200722162641e-16 2.47302178735254e-14 2.25514051876985e-16 
62 1    0.666666666666629    0.166666666666629                  0.5 2.15105711021124e-16 1.26634813746307e-16 -1.42247325030098e-16 
63 1    0.833333333333371                    0                  0.5  3.2612801348364e-16 2.32175390024736e-14 4.85722573273506e-16 
64 1    0.833333333333371    0.166666666666629    0.333333333333371 -1.35308431126191e-16 -1.6306400674182e-16 6.21031004399697e-16 
65 1    0.666666666666629    0.333333333333371    0.333333333333371 -1.68918698473242e-16 1.00397121172158e-15 8.27354677823688e-16 
66 1    0.666666666666629                  0.5                  0.5 3.33066907387547e-16 2.70616862252382e-16 -1.02175212735034e-15 
67 1    0.833333333333371    0.333333333333371                  0.5 1.79023462720806e-15  2.1315414711065e-15 1.81105130891979e-15 
68 1    0.833333333333371                  0.5    0.333333333333371 1.84574577843932e-15 1.40165656858926e-15 1.83186799063151e-15 
69 1    0.666666666666629    0.666666666666629    0.333333333333371 1.04603825601401e-15 -5.20417042793042e-18 1.16920362280837e-15 
70 1    0.666666666666629    0.833333333333371                  0.5 1.83186799063151e-15 -2.47839943012806e-14 1.87350135405495e-16 
71 1    0.833333333333371    0.666666666666629                  0.5 4.25354196309513e-15 7.32053306862213e-16   5.759281940243e-16 
72 1    0.833333333333371    0.833333333333371    0.333333333333371 3.39225175727265e-15 -2.61264534312522e-14 -8.43509290193722e-17 
73 1                    0                    0    0.666666666666629 -6.38378239159465e-16 2.24611995669477e-14 5.82867087928207e-16 
74 1                    0    0.166666666666629    0.833333333333371 -6.38378239159465e-15 3.11556336285435e-15 -2.54640059038636e-14 
75 1    0.166666666666629                    0    0.833333333333371 3.33066907387547e-15 1.84140896974938e-14 -2.50875709095766e-14 
76 1    0.166666666666629    0.166666666666629    0.666666666666629 1.72084568816899e-15 8.46545056276682e-16 1.06338549077378e-15 
77 1                    0    0.333333333333371    0.666666666666629 -5.4678483962789e-15 -1.95503335742586e-15 1.23512311489549e-15 
78 1                    0                  0.5    0.833333333333371 -4.49640324973188e-15 -1.93985452701106e-15 -2.64094301982709e-14 
79 1    0.166666666666629    0.333333333333371    0.833333333333371 -1.20736753927986e-15 -1.82666382020358e-15 -2.53738002831128e-14 
80 1    0.166666666666629                  0.5    0.666666666666629 -8.32667268468867e-17 -9.4542429440736e-16 6.71337985203024e-16 
81 1                    0    0.666666666666629    0.666666666666629 -5.4678483962789e-15 1.80411241501588e-15 1.52655665885959e-16 
82 1                    0    0.833333333333371    0.833333333333371 -5.21804821573824e-15 -2.39183672867682e-14 -2.65690247580608e-14 
83 1    0.166666666666629    0.666666666666629    0.833333333333371 1.01307850997046e-15 1.80584713849186e-15 -2.38385700068733e-14 
84 1    0.166666666666629    0.833333333333371    0.666666666666629 9.71445146547012e-16 -2.34916253116779e-14 2.05044314860459e-15 
85 1    0.333333333333371                    0    0.666666666666629 -2.68361721733612e-15 2.28908146777951e-14 1.25263297998113e-15 
86 1    0.333333333333371    0.166666666666629    0.833333333333371 -3.09691508548759e-15 9.44448512452123e-16 -2.53392684439191e-14 
87 1                  0.5                    0    0.833333333333371 -5.65953534037433e-16  2.0354648955917e-14 -2.56669685505528e-14 
88 1                  0.5    0.166666666666629    0.666666666666629 -9.64647374813482e-17 1.27675647831893e-15 3.79904441238921e-16 
89 1    0.333333333333371    0.333333333333371    0.666666666666629 -1.58423621443582e-15 -1.53658552895508e-15 1.75385964432118e-15 
90 1    0.333333333333371                  0.5    0.833333333333371 -1.71650887947905e-15 -1.04094250580333e-15 -2.51179827805148e-14 
91 1                  0.5    0.333333333333371    0.833333333333371 -7.52869988573934e-16 -1.60895602396849e-15 -2.57216665501547e-14 
92 1                  0.5                  0.5    0.666666666666629 3.20056481317721e-16 -2.00696664148792e-15 -8.32667268468867e-17 
93 1    0.333333333333371    0.666666666666629    0.666666666666629 -3.44342609981396e-15 2.36621703134099e-15 7.55472073787899e-16 
94 1    0.333333333333371    0.833333333333371    0.833333333333371 -4.80995451801469e-15 -2.28974825211559e-14 -2.55666798495979e-14 
95 1                  0.5    0.666666666666629    0.833333333333371  -3.216177324461e-15 1.13103970633688e-15 -2.40397979300866e-14 
96 1                  0.5    0.833333333333371    0.666666666666629 -2.93862156830471e-15 -2.3862856135537e-14 1.01307850997046e-15 
97 1    0.666666666666629                    0    0.666666666666629 1.79717352111197e-15 2.37934671964979e-14 2.48065457064683e-16 
98 1    0.666666666666629    0.166666666666629    0.833333333333371  1.1518563880486e-15 1.62023172656234e-15 -2.39218367337202e-14 
99 1    0.833333333333371                    0    0.833333333333371 2.09554595897998e-15 1.99493199737333e-14 -2.53408405370692e-14 
100 1    0.833333333333371    0.166666666666629    0.666666666666629  2.6853519408121e-15 3.03923552991137e-15  2.3037127760972e-15 
101 1    0.666666666666629    0.333333333333371    0.666666666666629 1.46063716677247e-15 -1.33158785237683e-15  9.5062846483529e-16 
102 1    0.666666666666629                  0.5    0.833333333333371 2.00880978518114e-15 -2.33320307518881e-15 -2.43763342844261e-14 
103 1    0.833333333333371    0.333333333333371    0.833333333333371 3.33674060604139e-15 -2.37418591730876e-15 -2.67160425726498e-14 
104 1    0.833333333333371                  0.5    0.666666666666629 3.51108031537706e-15 -9.60169443953163e-16 3.46944695195361e-16 
105 1    0.666666666666629    0.666666666666629    0.666666666666629 2.52922682797418e-15 8.06646416329215e-16 -4.54497550705923e-16 
106 1    0.666666666666629    0.833333333333371    0.833333333333371 2.92127433354494e-15 -2.28748226957509e-14 -2.47397588526432e-14 
107 1    0.833333333333371    0.666666666666629    0.833333333333371 3.42434414157822e-15 1.86656246015104e-15 -2.54692100742915e-14 
108 1    0.833333333333371    0.833333333333371    0.666666666666629 4.18415302405606e-15 -2.5132673719952e-14   1.346145417358e-15 
ITEM: TIMESTEP
100
ITEM: NUMBER OF ATOMS
108
ITEM: BOX BOUNDS pp pp pp
-1.3791661107883080e-01 1.2287916611078828e+01
-1.3791661107882991e-01 1.2287916611078817e+01
-1.3791661107882991e-01 1.2287916611078817e+01
ITEM: ATOMS id type xsu ysu zsu fx fy fz 
1 1 -0.00167122716601398 -9.59152336008628e-05 -0.00507628415294903  -0.0180110768843129    0.107717849212526   0.0594414770812692 
2 1  -0.0279129834686387    0.165513711044014    0.177249944079108    0.418063423041001   -0.329643112720429    -0.45320430383126 
3 1     0.17222320612052   0.0344592289058028    0.174163299014708   -0.370579549508168   -0.429965985947911   -0.599791015443017 
4 1    0.159261030354628    0.163964869197798  -0.0173096439937126     0.42254346502772  -0.0501683401079389    0.401119285902147 
5 1  0.00664735003999795    0.320096723686561  -0.0122547858717326   -0.259670990029187   -0.485204315859719   0.0166526769923931 
6 1   0.0036539520704082    0.476862822069734    0.157134206618139   -0.215430734106888    0.308662345991916    0.400465037501663 
7 1    0.163294055612027    0.325760318136417    0.155137147120172    0.195772994013158   -0.390889345253015    0.063441266380391 
8 1    0.153288874343161    0.482976613345954  0.00577654010101014    0.520017409331698    0.436274943625881   -0.710072722155584 
9 1  -0.0214727341181629    0.660274289912309  -0.0112743035500102     0.29783376025878   -0.356376880009689   0.0507238929174113 
10 1 -0.00319444245837985    0.829198049667184    0.130579100120713   0.0415365002364019   0.0241792336639667    0.711111249023751 
11 1     0.15887454929566    0.666898552606426    0.135396313745218  -0.0750074334120606   -0.136144952280897    0.117976395982761 
12 1    0.172184815919763    0.837538702505981 -0.00212464920610955   0.0361687435464752   -0.160117401245524  -0.0637476419526817 
13 1    0.340175185539579   0.0166230121394619 -0.00644529307623998   -0.268974801241413    -0.16518936603905     0.61728729687533 
14 1    0.365623023147123    0.169498052946324    0.187660799483524  -0.0283106858189653   -0.054492390742849   -0.451780846343165 
15 1    0.494560289308311  -0.0132687917036947    0.202793382139703    0.357863551196197    0.354053667288865   -0.786486809259005 
16 1    0.513220114140836    0.162538596057516 -0.00437361165762695   -0.273021926387691   0.0967727527807062    0.302284773248513 
17 1    0.345826509987205    0.334101894107107 0.000113145144382543   -0.399758269198578   -0.159249406383528    0.424948301172132 
18 1    0.316384855153956    0.498650215150633    0.168967549533363    0.500168807597779  -0.0261643771193131   -0.557951850775367 
19 1    0.502814597657675    0.346884840718076    0.184484042993176    0.202168879687377   0.0403939421636619   -0.264222416184969 
20 1    0.486723494190073    0.515456874756183   0.0268523229193534    0.685487469087487   -0.616176538356457   0.0235777614147663 
21 1    0.342753068068873    0.669539715103156   0.0215077790259102    -0.41721603459378      0.7792948016036   -0.256427640147103 
22 1    0.309896124936245     0.85171385701301    0.172446785763896    0.514351861260421  -0.0597669362643015   -0.447593517837888 
23 1    0.505044525497851    0.689489367169358    0.168767392998006    -0.29769404399168   -0.140570550856581    0.285248888692877 
24 1     0.51668490377449    0.843400097620361 0.000308397129629157   -0.578964419828977   -0.198824358350948    0.214668511646436 
25 1    0.672952965699778 -0.00920997520449873 -0.00272058142684273  -0.0946244189659093    0.265205901074974   -0.319567786437722 
26 1    0.644976686454584    0.155349994465155    0.186520608867795    0.498358797003951   0.0837609228725141   -0.954117273723207 
27 1    0.810274958367131 -0.00832292255046241    0.157478145366213    0.476619394621727    0.187628658338251    0.485433329455252 
28 1     0.82745316669002    0.157941942533625  -0.0145324540658294    0.363627032650115   0.0680960590996631    0.299887264078143 
29 1    0.660282494372154    0.324132856888241   0.0167642529978593    0.019569948572655     0.15713342711641   0.0455967595960877 
30 1    0.656545887001471    0.510336722302213    0.184947012909788   -0.145432336273215   -0.100075592166412  -0.0284668302378661 
31 1    0.809339167239386    0.319245790114678    0.178952285604964   0.0340302289872041    0.179997572019836   -0.441720044430506 
32 1    0.853893677293399    0.465375518152314  0.00450167960036651   -0.490800480052797    0.396450876619006   -0.120359872311611 
33 1    0.669189380275157    0.652543959536729  0.00226180093522999    0.315631771625256   -0.121892648475749  -0.0581590546608323 
34 1    0.668039871952146    0.823522243691059    0.161891464736073    0.182763839032864    0.296286617248252    0.333903946607947 
35 1    0.825703381915787    0.652649546070165    0.164281007015916    0.203389116478647    0.192527395570347  -0.0328773714941556 
36 1    0.826734692395462    0.821792104547967 -0.00109235211999703   -0.171671275962212  -0.0389802269371127   -0.268697309049025 
37 1  -0.0164139734879427  -0.0202761603223394    0.310897543323335    0.259254802953776    0.593485424459829   -0.377155737613645 
38 1 -0.00389620582740235     0.17830277848725    0.475832159995321    0.121168945781292   -0.257062283482013     0.24220366355237 
39 1    0.148019057692863 0.000269816868467387    0.488720377612367   0.0229877405699987  -0.0247450867520317   -0.145411606587687 
40 1    0.185805138071828      0.1840737535681    0.321061140633788   -0.430178195279379    0.087008470585578    0.742255720491429 
41 1  -0.0101288237569293    0.329852471961772     0.32163428930096    0.281792703889453     0.10450851756268    0.135093578570863 
42 1 -0.00534550531824607    0.501635589442799    0.469301092078695    0.253629038078341   0.0246917015942651    0.218253483655585 
43 1    0.169336300532109    0.336122239231372    0.491992308963972   0.0702386790046735   -0.111813658912159    -0.66846380923315 
44 1    0.179350001004195    0.497463978204451    0.322062437651539   -0.646928003281425   0.0617054760582402    0.657053953675386 
45 1   0.0114026850092159    0.656246187455622    0.294414855553669   -0.432701763656154  -0.0723120023549268     0.31780843038939 
46 1  -0.0015956127851382     0.81618996905695    0.459556579699324    0.141304672364415   -0.174859956222486    0.994815255468384 
47 1     0.19793253174953    0.684512589993005    0.475544764097776   -0.818874180429509   -0.497072405272602    0.471345529198007 
48 1    0.145898877250602    0.831961296404302    0.307877780337321    0.405950898415296    0.106501426936748  -0.0782577820640366 
49 1    0.317691697934038  0.00230296573977284    0.340142649452332    0.118452312079586    0.146976104980416    0.487801615355577 
50 1    0.339497877303643    0.182334139859904    0.535639811286956    0.545957898838062    0.287085650534193   -0.955715109545326 
51 1    0.497852361944865   0.0232297854562376    0.516841687433953   0.0535146830568896   -0.324305042349747   0.0376403530203498 
52 1     0.53227029197717    0.170024179405686    0.355609913702438    -1.65658954594713   0.0971037926728822     0.55461352500014 
53 1    0.342315464278727    0.340662544139946    0.327375316769349  -0.0353213200139546   0.0516367285626791    0.680617689227975 
54 1    0.349815328171417    0.489303115943926    0.509452798563984   -0.476275119465538   -0.152838232112366   -0.281312337107207 
55 1    0.510422293368833    0.348103912462648    0.517436018026274   0.0105044374623065   -0.660632516302579  -0.0414033996339097 
56 1    0.489054954565404     0.52710490119091    0.343280062843746    0.282547611392586   -0.357303853314051   -0.313630962130595 
57 1    0.324408992021858    0.674342018695484    0.307025074264629   0.0548534165691067   0.0890027417715505   -0.136037210357762 
58 1    0.324268311395144    0.849239703857279    0.516877575980743    0.159025158309754    0.482618746336246  -0.0173554503417546 
59 1    0.458921032878948    0.679250076030371    0.501238106149799    0.648593488881479    0.193299444775005    0.147988323041799 
60 1    0.475599548804098    0.843777028433692    0.348843449387687    0.152282184713018   -0.356800246260259    0.334561548036532 
61 1    0.673388973016699   0.0149999002837831    0.359883204206426   -0.167255716890118   -0.785661580758265   -0.886149627890671 
62 1    0.689909873965121      0.1561389123043    0.518101276400557   -0.348041781802734    0.356850198819643    0.529509585327155 
63 1    0.850815240157999  -0.0015418484877614    0.482593272101212    0.211212125435322    0.105150209552982    0.515029404597866 
64 1      0.8191875169083    0.173005053829343    0.337121294138456     0.21694196964471  -0.0569838439943183   0.0606541893151526 
65 1    0.657311739167426    0.332626238712578    0.353787766916639     0.36784726699413    0.800555123332458    -0.26029964240844 
66 1    0.660532294079076    0.515379178087755     0.51096148131046   -0.172450955463686    -0.16945681915328   -0.593074213600266 
67 1    0.815125552962058    0.339199336894012    0.504511008197824    0.406768978957482  -0.0657511624207362    0.167763998672182 
68 1    0.831140704022118    0.489230815899305    0.319621306804947   -0.155498611481022    0.269307639200603    0.281822450908965 
69 1    0.645008729321944    0.694906624968326    0.350950750673633    0.199657624533007   -0.505363552179744   0.0424809631279269 
70 1    0.655548492432217    0.858416159167859    0.498535325966941   -0.081272110431326    -0.25698365975039    0.644355914682078 
71 1    0.832614780275435    0.669954962889165    0.496258315460068    0.208901821986255   -0.157353754395156   -0.574649740127884 
72 1    0.822971620530097    0.834072305274162     0.33603218383405   -0.432064204454866   -0.282186986620154   -0.539353826877165 
73 1  0.00730392655452761 -0.00885706338630143    0.660150535515299    0.101860122221117  -0.0821385030503215   -0.196159547349511 
74 1   0.0208943205777814    0.154258737486543    0.816113499473204   -0.239329807628333  0.00861317895953148 -0.00700121586257349 
75 1    0.159398269130179  -0.0227846758259034    0.837806809547601   -0.341738182412163    0.995924011534734   -0.178330978721662 
76 1    0.164998458286391    0.177282405230017    0.642192749189576   -0.374646151044065   -0.535926256220377    0.678925356754822 
77 1   0.0159944538783066    0.334419746841718     0.66230420047043    -0.85667526597647   0.0639120970654955    -0.49472096228527 
78 1  0.00729777568130885    0.497932593953692    0.825906753797312    -0.49351103204612   -0.143623117850937   0.0355683226009949 
79 1    0.155527103828831    0.340212716761926    0.821716567292128    0.728783799328503   -0.173825377412244     0.26720811160209 
80 1    0.171908116057466    0.488112196680959    0.635514607593564   -0.349808482187275    0.437915678555145    0.477530696208862 
81 1  0.00273362223538243    0.638828925529197    0.650675719159835    0.469609197493224    0.553651937099476    -0.30923157333085 
82 1 -5.41962038482779e-05    0.809711544057791    0.815017054800137     0.22957526642683    0.249484493312753   0.0901547982967189 
83 1    0.158771946285469    0.655486816151324    0.833948071684858    0.414514766496163    0.108568139505582   0.0998094833870391 
84 1    0.164848844983453    0.836703498630072    0.674826836640136    0.185171639226963   -0.472226058906586   -0.630702981519792 
85 1    0.331626121642671   0.0102503682592214    0.672651797544404  -0.0954246887630906   -0.125957852798154    0.236908102381604 
86 1    0.330139840826973    0.174101296952017    0.833775048160874   -0.158591868615509  -0.0472495029837077   -0.065707303561276 
87 1    0.501301243007447 -0.00216141337170939     0.84684695840042    0.257926031080908    0.190256913247892   -0.587600711245643 
88 1    0.501163838118373    0.172923542099738     0.68846123237654    0.271381187099723    0.110527460232296   0.0543632365511791 
89 1    0.343548220649041    0.352037762712484    0.699665457139872   -0.151223731000112  -0.0795036667976402   -0.321482448868492 
90 1    0.339966345041148    0.515874540905997    0.862150434944738   -0.408482092123617   -0.139439312561442   -0.416885777532048 
91 1    0.500321209659774    0.354131446737824    0.854504775942814    0.317484494951251   -0.168059667487324   0.0904795642678109 
92 1    0.501481142939497    0.504418808480636       0.677515764134    0.320310012232062    0.583201803592307    0.372762408788491 
93 1    0.321474026218993    0.642490625207984    0.668499237180299   0.0180992882718961    0.585339343722878    0.503040430515494 
94 1    0.325462365350518     0.85389143670966    0.835143212746289    0.736263552045998   -0.835522256566064 -0.00921507990433619 
95 1     0.50482957776785    0.669276794328994    0.859304071694964   -0.132649268146154   -0.121376939152429   -0.633695408875718 
96 1     0.50299213099288    0.831001570677586    0.686063862454148   -0.103264292909669  -0.0326288651308269   -0.238508958501299 
97 1    0.679357132307473  0.00187954108071153    0.689352290846386   -0.420493487173561   -0.276828123163071    -0.24385570060958 
98 1     0.67216745353744    0.167029779409518     0.83336184114637  -0.0123592052671812   0.0126671573058813    0.074820183746244 
99 1     0.85540039625505  -0.0317242354477685    0.826528928228072   -0.408469203446961    0.412667701570576    0.190841809163034 
100 1    0.852464403209979    0.144835825985524    0.665388774398025  -0.0315319379271076    0.264555139054588  -0.0262616202610605 
101 1    0.655543733758805    0.345403025776022    0.697097977052181    0.184745247401934   -0.482622867297577   -0.815846014187769 
102 1    0.699811827360008     0.47391598649051    0.853787880828008   -0.310598586841108     0.86380323272521   0.0956206550255291 
103 1    0.850422383270256    0.312673405324063    0.814412268113983    0.151208459773462     0.12024689343517    0.125975631551764 
104 1    0.834482557183946    0.498682258355643    0.651186268079982    0.115523885264386   -0.403406188220633    0.437414884122862 
105 1    0.689527139219081    0.670641964509514    0.652536967668539   -0.911959639356896    0.263003879414357     0.45884893140451 
106 1    0.676869481342123    0.813404024448573    0.830479991361926   0.0548970602336012    0.256763739059266   0.0622951541374438 
107 1    0.848035298489322    0.665351077490868    0.806602934274224   -0.516871965690288   -0.364434351225418    0.320800020967245 
108 1    0.835681881334949    0.842513125905725    0.641761194153901    0.239539410692482   -0.138878888870074   0.0679159730532241 
ITEM: TIMESTEP
200
ITEM: NUMBER OF ATOMS
108
ITEM: BOX BOUNDS pp pp pp
-1.7942361733408418e-01 1.2329423617334076e+01
-1.7942361733408330e-01 1.2329423617334065e+01
-1.7942361733408330e-01 1.2329423617334065e+01
ITEM: ATOMS id type xsu ysu zsu fx fy fz 
1 1 -0.00456739842678644  -0.0227348631553355    -0.01029269002413   0.0821099895196627    0.528855114230904   0.0564234049126971 
2 1  0.00990705215212984    0.176842469877101    0.173842505863945  -0.0086799885277959    -0.65947870949074   -0.127375187736813 
3 1    0.165808030809671   -0.020029276213279    0.142444825863095   -0.483988185296225    0.522289177154621    0.657324599224631 
4 1    0.174515871236167    0.156062260493286 -0.00356777353925963   -0.381609687306408    0.236289558717143   -0.113651302407063 