LAMMPS (17 Nov 2016)
units metal
dimension 3
boundary p p p
atom_style atomic
read_data structure.inp
  orthogonal box = (0 0 0) to (12.15 12.15 12.15)
  1 by 1 by 1 MPI processor grid
  reading atoms ...
  108 atoms
include potential.inp
pair_style eam/alloy
pair_coeff * * Al_lammps_2.eam Al
fix 1 all npt temp 600 600 1.0 iso 0.0 0.0 1.0
variable  dumptime equal 100
dump 1 all custom ${dumptime} dump.out id type xsu ysu zsu fx fy fz
dump 1 all custom 100 dump.out id type xsu ysu zsu fx fy fz
dump_modify 1 sort id format line "%d %d %20.15g %20.15g %20.15g %20.15g %20.15g %20.15g"
thermo_style custom step temp pe etotal pxx pyy pzz vol
thermo_modify format  float %20.15g
thermo 100
velocity all create 1200 89342 dist gaussian
run 10000
Neighbor list info ...
  1 neighbor list requests
  update every 1 steps, delay 10 steps, check yes
  max neighbors/atom: 2000, page size: 100000
  master list distance cutoff = 8.5
  ghost atom cutoff = 8.5
  binsize = 4.25 -> bins = 3 3 3
Memory usage per processor = 3.93753 Mbytes
Step Temp PotEng TotEng Pxx Pyy Pzz Volume 
       0                 1200    -362.821576160678    -346.224573542678     5768.37088545818     5871.05802282815     7011.10451481572          1793.613375 
     100     486.030024615555    -353.998453875518    -347.276252549709    -7257.96131819421     -13401.588025611    -10205.2853168922     1918.56519157647 
     200     493.380647217182    -353.701131597026    -346.877265019081    -24117.3654616062    -23937.3339466968    -22173.9801201075     1957.27507720175 
     300      562.27341875901    -354.686642052915    -346.909930883602     22948.0103491794     22832.4858373177     28841.1781622593     1816.06264246087 
     400     501.158310999919    -354.273064061348    -347.341625894933     1039.20641488727    -630.444539222049     2425.16690265096     1881.72561785476 
     500      482.13080209227    -353.689458915177    -347.021187094724    -16875.8160265486    -14513.2056770088     -16254.860958202     1932.35881930737 
     600     556.360775867881    -354.718238988194    -347.023304610168     12056.3451716582     12756.9897035237     13962.4898985121     1847.75259352134 
     700     559.849173523443     -354.71666419983    -346.973482367618      494.89150936114     2078.77924718643     1443.33425410621     1875.79858554843 
     800     496.642506568401    -353.587973291605      -346.7189924735    -12391.0323911348    -10414.2044294742    -9327.14119527507     1920.15756639342 
     900     528.573328178743    -353.953125967389    -346.642515207733     4036.27317526905     12161.6015691479     6409.86565184899     1866.84139965742 
    1000     561.494264703859    -354.251713293009    -346.485778475274     2186.92918113378     7020.61823374134     5780.41500837481      1871.3563212389 
    1100     575.300113554441    -354.211164259832      -346.2542830175    -10484.3163606828    -11369.4500431992    -8560.88997732495     1912.28954532262 
    1200     603.115648196916    -354.481076832635    -346.139483505901     1894.62613698268     1349.01869591201     4599.43806725332     1876.53382924173 
    1300     560.866699993692    -353.786944747541    -346.029689674087     3085.78483181269     1538.80693233591     8626.70228920743     1881.49742435692 
    1400     561.853935062444    -353.619211838246    -345.848302478942    -9833.65565116611    -10444.4088738971    -9006.08176189642      1917.6423786961 
    1500     604.380008971026    -354.151507065645    -345.792426573012     3987.27149695506     3420.55114948799     6981.39040073493     1876.57957841638 
    1600      578.08196351955    -353.696886468329    -345.701529916702     1338.55684664233     1367.08784973275     4546.10394877481      1881.2865977222 
    1700      541.53425802259    -353.069594811269    -345.579723562821    -3206.05089190524    -7134.12131287537    -5629.72185932919     1910.42963517694 
    1800     580.801525575578    -353.554240517187     -345.52127015009     3235.89426047714    -942.209546111648      4005.9305492297      1890.1191993585 
    1900     576.547720630612    -353.425795301359    -345.451658610769     3179.35924481106     3406.89949521528     692.760638604205     1887.68334602904 
    2000     590.889270161127    -353.555833305213    -345.383341002036     168.791456715648    -8252.39907073872    -961.002005609877     1904.08268732694 
    2100     612.224806924247    -353.795889373134    -345.328308770363     -2781.0989889581    -1594.07781207417    -3291.92887816445      1898.1046945417 
    2200     535.974649095487    -352.678822050027    -345.265844838178     8742.09746158053     4606.82711526175     5725.11984008358     1885.19236716107 
    2300     659.169620984635    -354.326944812066    -345.210078207742    -4225.92972727654    -4314.24779463139     -7598.4689014669     1901.02290647491 
    2400     576.936187192497    -353.135290250665    -345.155780742954    -30.0130174802839     1672.01114050488     1847.29294672673     1896.89571634711 
    2500     566.755419999355    -352.940165262122    -345.101464270876     4296.42425026612     963.137639619384      311.09353539692     1893.03279808548 
    2600     567.022203752782    -352.892155039073    -345.049764205615     4271.51069186943     1355.60873361694    -1050.12147187747     1896.50932398705 
    2700     609.441557955054    -353.427969574377    -344.998883630296     951.575272877892    -5316.97474529748    -578.591582935967     1899.14443465038 
    2800     599.188215197913    -353.234545493126    -344.947271846198     3340.55015355802     1316.90706755822    -481.172958378322      1890.7862425816 
    2900     611.508343565075    -353.360928973994    -344.903257658095     2593.71577875961    -2023.26174895654     2493.68409389354     1893.01916779084 
    3000     620.611570444586     -353.43171598573    -344.848139436205     133.364475747732    -7526.98309966013     -4593.3616766555      1905.5846099719 
    3100     606.089887026247    -353.185140205363    -344.802410670598     1026.27911263425     2850.45123881455     2796.70939966259      1894.3510836406 
    3200     597.837266154354     -353.02643310434    -344.757844211422     2600.25795454645     344.304258572623    -3446.65050259749     1901.04093291081 
    3300     587.923869279238    -352.836377076779    -344.704898745436    -3482.46019265087     -3216.8007529346    -595.450582130895     1908.15551404811 
    3400     594.919102574971    -352.885801973928    -344.657573721483     728.394633296516      239.88507311693     3278.49194083432     1897.42427815346 
    3500     643.080910024355    -353.499634697908    -344.605288408525    -1972.94244240849    -83.8592104723163     1334.07930352345      1896.6825213822 
    3600     587.710261101547    -352.698252102364    -344.569728150591     -3405.5716202702      3374.8023522694     801.410006812761     1901.68924318366 
    3700     607.560548149061     -352.92157257464    -344.518502567787      394.59564129486    -494.312503309342     171.895106007525     1897.88320015133 
    3800     570.049587739048     -352.35308999329    -344.468827909877     1119.10812829466     5531.43642249109     8913.13365277563     1888.94931636136 
    3900     681.031149676617     -353.84575138517    -344.426521573401    -6139.46611598187    -4581.75803898006    -4945.94243760729     1907.00839620763 
    4000      576.72805668312    -352.370230184931    -344.393599296062     299.256328880339     787.532722583056     5191.72402785528     1898.49670783687 
    4100     675.403449698808    -353.698013959436    -344.356619940388    -487.396380164745    -1057.77825218577     1101.93362701503      1894.0235821947 
    4200     552.197780043944    -351.981314217393    -344.343957549857     1245.23148108495     2892.55456011075     3640.01257163449     1899.78041891701 
    4300     636.194303417982    -353.110461688097    -344.311362921942    -7893.71505333448    -4539.74477084349    -3569.39753815235      1912.6982869573 
    4400     634.811311230309    -353.062374962593    -344.282404133905      5984.2397085027     3923.99303400221     5145.66624471608     1886.20113924354 
    4500     717.831627439022    -354.211129956834     -344.28291879026    -4760.78549981583    -4374.56499832333    -6135.53674319117     1904.21651178486 
    4600     610.268097556024    -352.695820648747    -344.255302971398    -4943.96624880392    -1966.85876012227    -2766.47029451519     1917.59757084089 
    4700     612.228803810933    -352.732873984304     -344.26523810125    -3152.68766719434     5708.53397507411    -879.392596974215     1902.49166946522 
    4800      682.79137731409    -353.688006336817    -344.244431106126     1817.79127330045     1739.24615945093     921.884961313141     1889.08250945173 
    4900     599.853864681495    -352.568501240325    -344.272021104878    -770.841967036589     106.487848892543    -680.946434571178     1905.60082029349 
    5000     665.559223711256    -353.483193762546    -344.277953613905    -6061.47166162845    -4774.58483427102    -4715.38663054778     1911.78580996021 
    5100     647.393372833114    -353.239009917555    -344.285018664399     3796.91795699446     6723.32423790929     4124.41767530549     1884.66804615464 
    5200      643.69801521307    -353.244664202523    -344.341782832779    -3415.18811331073     923.580864832301    -3767.66183581622      1903.6593293185 
    5300      553.78606799857    -352.040388531259    -344.381064514272    -2499.16064732801    -1882.86005297024    -1087.72461325297     1910.78007428221 
    5400     670.630035175299    -353.706943842318     -344.43157013439     2848.68387167268      5559.0401818348     4917.92460699138     1884.46346687189 
    5500     610.082502507482    -352.984793065395    -344.546842322634    -4612.69032209314    -1045.60218202205     1606.63315224077     1902.05850415248 
    5600     591.664880576379    -352.795192755256    -344.611973112002    -6995.95928029358    -6038.63780147449    -9364.03936797375     1917.32906775585 
    5700     621.100968905938    -353.289273393398    -344.698928054253     8250.87034830948     8966.96481489795     12680.5994516916     1869.72102510715 
    5800     559.304686081714    -352.630274859439    -344.894623743474     547.223867690179    -52.4083077229991    -624.089714510305     1899.83012123956 
    5900     555.572310289451    -352.608321634726    -344.924292394424    -9309.77584058883    -8326.11304505161    -6206.19364561299     1926.18512676686 
    6000     646.419678995615    -353.992371430627     -345.05184717678      10306.737936361     4517.09872780828     6110.76713174163     1872.36771830415 
    6100     605.019509379998    -353.613176804869    -345.245251487269     3270.52963329054      1522.1843093925     4593.23234415006     1886.22638356579 
    6200     506.533556456528    -352.292624921703    -345.286842619525    -10028.2529511047    -8617.47613576411    -6542.95080095752     1925.39898240109 
    6300     639.555826283099    -354.349122988312     -345.50353155233      2695.7656117219     1496.65307409361     2825.90730614186     1877.97533158698 
    6400     542.649060869661    -353.131878371208     -345.62658846795      11843.163170431     12672.0524444921     12651.9397774579     1864.61507099224 
    6500     574.293729130693    -353.607046059865    -345.664083954962    -13291.2442972853    -16899.0101062546    -14214.1994217411     1931.71735840555 
    6600     591.826258429178    -354.089444385725    -345.903992751933     3979.40264612045     2904.88219713762     4538.88919085745     1879.69325515715 
    6700     598.634822870639    -354.237629961626    -345.958010192951     8308.47666239658     6719.44432926866     8027.80159626986     1867.56911768707 
    6800     536.088890053301    -353.406398576219    -345.991841316473     -6343.8110559516    -5729.23189549997    -11979.9370976988     1919.71874500263 
    6900     525.626366496603    -353.388546438635    -346.118694621274    -1949.06117591853    -2568.92463865698    -3564.05905370547     1900.17657287258 
    7000     580.353788961991    -354.145091135132    -346.118313339492     9786.42102069011     12481.7822447155     10997.0929363536     1860.11598928685 
    7100     545.683845260787    -353.789788666448    -346.242525159453    -6056.37132655018    -4696.04271626465    -8704.62830361974      1905.6377834846 
    7200     521.131717594784    -353.472449188487    -346.264762120784    -984.240486960256     255.928668010883     -4343.5657373848      1900.2391088952 
    7300     550.781775503586    -353.871543320671    -346.253771179021     7590.08004335796     7404.09139963871     3844.30480503216     1871.86151927849 
    7400     527.696541035264    -353.589643822261    -346.291159761367     -1788.7557026278     -66.652423507546    -3971.14986288689     1894.13448014693 
    7500     544.188278782805    -353.812362333371    -346.285783760335    -1184.89155935766     332.729584935891    -2189.52604418919     1895.98814367449 
    7600     528.170560562001    -353.577476712996    -346.272436565998     5266.42072304123     6159.17379555436     3403.66953206365     1879.49090104382 
    7700     589.577799199146    -354.406232856075    -346.251879292056    -4271.65635641708     1319.61918219775    -1008.89093356743     1889.03610770558 
    7800     541.804776491122    -353.714570254137    -346.220957509247     143.185676828576    -3620.72546218434     87.5215040883575     1896.28142512388 
    7900     580.450069999351     -354.20618667012    -346.178077227289    -873.793331226483    -1152.62892677571    -481.236790904278     1889.75721516232 
    8000     551.296108879405    -353.737517698009    -346.112631896039     314.503274372646     7415.33632375135    -926.699005789606     1884.19782656543 
    8100     573.977920573352    -353.978018841245    -346.039424632554     -1197.9292053277    -2852.84620638163    -3024.54474908063     1893.84390148776 
    8200     614.551601991551    -354.448384525349    -345.948622402724    -5969.28858886603    -587.385228753379    -3413.55642714795     1891.31161204469 
    8300     611.230159496879    -354.286904080004    -345.833080282196     2367.20660936583     3195.87468426715      953.45009463725     1882.19757090817 
    8400     556.740985361098    -353.392423098489    -345.692230105501    -546.689109514212    -1862.30389925664    -1250.69341546931     1897.38622713488 
    8500     607.561503046833    -353.942121541608    -345.539038327721    -2824.01028874292     -225.15594738273    -5972.49620701599     1900.46949029094 
    8600     617.370141740065    -353.902104459727    -345.363359577447    -843.183613487879     1996.23056005951    -1806.24525836306     1891.29682499538 
    8700     599.969733417071    -353.476091493629    -345.178008796759     771.152699413745     197.122056560049     3231.20896284219     1894.44216317623 
    8800     588.572272842273    -353.111474639797    -344.971028345426     -5520.0884664449    -6643.82917012298    -5361.67032161209     1911.33180073615 
    8900     611.215426163248    -353.231486541572    -344.777866518078     5142.67526613395       5255.673960302     5135.69497157171     1885.60516839292 
    9000     647.147005749214    -353.556862121525    -344.606278330983     -4652.2018934223    -2772.65046771417    -1914.00317773238     1901.60354344065 
    9100     611.109088421936    -352.871599762801    -344.419450479115    -1816.43322427875    -5196.76442804468    -1262.37836537159     1907.72228977995 
    9200     612.546281272703    -352.732096240694    -344.260069379086     6671.17175967258     5260.45994660004     5099.75258903299     1891.18958145403 
    9300     640.293852290524    -353.002029340952    -344.146230388656    -7433.81013256697    -2206.45335360754    -3834.56443071522     1911.74673950518 
    9400     626.656299118172    -352.726646558742      -344.0594663612    -977.852910498276     3522.20360630123    -399.177874022148     1899.16528047059 
    9500     633.172038439232    -352.734550632233    -343.977252315883     3796.20558878412     5098.27977771434     1516.07939631916     1893.92838698897 
    9600     673.649536944968    -353.242251738249    -343.925115798007    -7896.41216151411    -3978.55008390588    -3376.38115891625     1911.10639594356 
    9700     654.827822997431    -352.954851015822    -343.898035105299    -2612.60755772757     534.451784589148    -1933.59463569604     1903.02360908066 
    9800     640.569482905187    -352.743516595064    -343.883905441074    -516.425542688228     4310.28887790234     4532.73373953631     1896.76722375902 
    9900     649.584246882451    -352.865444971692    -343.881152099925    -10218.5634032506    -3638.47093985226    -4009.28478461439     1917.59601923992 
   10000      712.33732241713    -353.764359629367     -343.91213929182    -5301.05876317182    -598.899017304276    -1082.51326752097     1901.32736341823 
Loop time of 2.73113 on 1 procs for 10000 steps with 108 atoms

Performance: 316.352 ns/day, 0.076 hours/ns, 3661.484 timesteps/s
99.7% CPU use with 1 MPI tasks x no OpenMP threads

MPI task timing breakdown:
Section |  min time  |  avg time  |  max time  |%varavg| %total
---------------------------------------------------------------
Pair    | 2.5234     | 2.5234     | 2.5234     |   0.0 | 92.39
Neigh   | 0.019381   | 0.019381   | 0.019381   |   0.0 |  0.71
Comm    | 0.070488   | 0.070488   | 0.070488   |   0.0 |  2.58
Output  | 0.034959   | 0.034959   | 0.034959   |   0.0 |  1.28
Modify  | 0.064386   | 0.064386   | 0.064386   |   0.0 |  2.36
Other   |            | 0.01855    |            |       |  0.68

Nlocal:    108 ave 108 max 108 min
Histogram: 1 0 0 0 0 0 0 0 0 0
Nghost:    1529 ave 1529 max 1529 min
Histogram: 1 0 0 0 0 0 0 0 0 0
Neighs:    7755 ave 7755 max 7755 min
Histogram: 1 0 0 0 0 0 0 0 0 0

Total # of neighbors = 7755
Ave neighs/atom = 71.8056
Neighbor list builds = 64
Dangerous builds = 0
Total wall time: 0:00:02
