no title                                                                
Freq      RB3LYP                                                      6-31G(d)            
Number of atoms                            I                3
Info1-9                                    I   N=           9
          12          11           0           0           0         100
           6          18        -502
Full Title                                 C   N=           1
no title    
Route                                      C   N=           3
#n B3LYP/6-31G(d) freq(noraman)     
Charge                                     I                0
Multiplicity                               I                1
Number of electrons                        I               10
Number of alpha electrons                  I                5
Number of beta electrons                   I                5
Number of basis functions                  I               19
Number of independent functions            I               19
Number of point charges in /Mol/           I                0
Number of translation vectors              I                0
Atomic numbers                             I   N=           3
           1           1           8
Nuclear charges                            R   N=           3
  1.00000000E+00  1.00000000E+00  8.00000000E+00
Current cartesian coordinates              R   N=           9
  2.13447055E-16  1.45748718E+00 -8.86606585E-01 -5.00515748E-16 -1.45748718E+00
 -8.86606585E-01  1.35722490E-17  1.35722490E-17  2.21651646E-01
Number of symbols in /Mol/                 I                0
Force Field                                I                0
Atom Types                                 C   N=           3
                                    
Int Atom Types                             I   N=           3
           0           0           0
MM charges                                 R   N=           3
  0.00000000E+00  0.00000000E+00  0.00000000E+00
Integer atomic weights                     I   N=           3
           1           1          16
Real atomic weights                        R   N=           3
  1.00782504E+00  1.00782504E+00  1.59949146E+01
Atom fragment info                         I   N=           3
           0           0           0
Atom residue num                           I   N=           3
           0           0           0
Nuclear spins                              I   N=           3
           1           1           0
Nuclear ZEff                               R   N=           3
 -1.00000000E+00 -1.00000000E+00 -5.60000000E+00
Nuclear ZNuc                               R   N=           3
  1.00000000E+00  1.00000000E+00  8.00000000E+00
Nuclear QMom                               R   N=           3
  0.00000000E+00  0.00000000E+00  0.00000000E+00
Nuclear GFac                               R   N=           3
  2.79284600E+00  2.79284600E+00  0.00000000E+00
MicOpt                                     I   N=           3
          -1          -1          -1
Number of residues                         I                0
Number of secondary structures             I                0
SymInf integers                            I   N=          26
           2           4           1           1           1          -1
          -1           1          -1           1           1           1
          -1           1           0           0           0           0
           0           0           0           0           0           0
           0           0
RotTr to input orientation                 R   N=          12
  1.00000000E+00 -1.83697020E-16 -6.12323400E-17  1.83697020E-16  1.00000000E+00
 -6.12323400E-17  6.12323400E-17  6.12323400E-17  1.00000000E+00  0.00000000E+00
  0.00000000E+00  0.00000000E+00
Number of contracted shells                I                8
Number of primitive shells                 I               19
Pure/Cartesian d shells                    I                1
Pure/Cartesian f shells                    I                0
Highest angular momentum                   I                2
Largest degree of contraction              I                6
Shell types                                I   N=           8
           0           0           0           0           0          -1
          -1           2
Number of primitives per shell             I   N=           8
           3           1           3           1           6           3
           1           1
Shell to atom map                          I   N=           8
           1           1           2           2           3           3
           3           3
Primitive exponents                        R   N=          19
  1.87311370E+01  2.82539436E+00  6.40121692E-01  1.61277759E-01  1.87311370E+01
  2.82539436E+00  6.40121692E-01  1.61277759E-01  5.48467166E+03  8.25234946E+02
  1.88046958E+02  5.29645000E+01  1.68975704E+01  5.79963534E+00  1.55396162E+01
  3.59993359E+00  1.01376175E+00  2.70005823E-01  8.00000000E-01
Contraction coefficients                   R   N=          19
  3.34946043E-02  2.34726953E-01  8.13757326E-01  1.00000000E+00  3.34946043E-02
  2.34726953E-01  8.13757326E-01  1.00000000E+00  1.83107443E-03  1.39501722E-02
  6.84450781E-02  2.32714336E-01  4.70192898E-01  3.58520853E-01 -1.10777550E-01
 -1.48026263E-01  1.13076702E+00  1.00000000E+00  1.00000000E+00
P(S=P) Contraction coefficients            R   N=          19
  0.00000000E+00  0.00000000E+00  0.00000000E+00  0.00000000E+00  0.00000000E+00
  0.00000000E+00  0.00000000E+00  0.00000000E+00  0.00000000E+00  0.00000000E+00
  0.00000000E+00  0.00000000E+00  0.00000000E+00  0.00000000E+00  7.08742682E-02
  3.39752839E-01  7.27158577E-01  1.00000000E+00  0.00000000E+00
Coordinates of each shell                  R   N=          24
  3.09592066E-50  1.45748718E+00 -8.86606585E-01  3.09592066E-50  1.45748718E+00
 -8.86606585E-01 -1.78490701E-16 -1.45748718E+00 -8.86606585E-01 -1.78490701E-16
 -1.45748718E+00 -8.86606585E-01  6.83016869E-34 -1.36603374E-33  2.21651646E-01
  6.83016869E-34 -1.36603374E-33  2.21651646E-01  6.83016869E-34 -1.36603374E-33
  2.21651646E-01  6.83016869E-34 -1.36603374E-33  2.21651646E-01
Num ILSW                                   I              100
ILSW                                       I   N=         100
           0           1           0           0           2           0
           0           0           0           0         402          -1
           5           0           0           0           2           0
           0           0           1           0           1           0
           1           0           0           0           0           0
           0           0      100000           0          -1           0
           0           0           0           0           0           0
           0           0           0           1           0           0
           0 -2000000000           1           0           0           0
           0           0           4          52           0           0
           0           0           5           0           0           0
           0           0           0           0           0           1
           0           0           0           0           0           0
           0           0           0           0           0           0
           0           0           0           0           0           0
           0           0           0           0           0           0
           0           0           0           0
Num RLSW                                   I               52
RLSW                                       R   N=          52
  8.00000000E-01  7.20000000E-01  1.00000000E+00  8.10000000E-01  2.00000000E-01
  0.00000000E+00  0.00000000E+00  1.00000000E+00  0.00000000E+00  0.00000000E+00
  0.00000000E+00  0.00000000E+00  1.00000000E+00  0.00000000E+00  0.00000000E+00
  0.00000000E+00  0.00000000E+00  1.00000000E+00  0.00000000E+00  0.00000000E+00
  0.00000000E+00  0.00000000E+00  1.00000000E+00  0.00000000E+00  0.00000000E+00
  0.00000000E+00  0.00000000E+00  1.00000000E+00  0.00000000E+00  0.00000000E+00
  0.00000000E+00  0.00000000E+00  1.00000000E+00  0.00000000E+00  0.00000000E+00
  0.00000000E+00  0.00000000E+00  0.00000000E+00  1.00000000E+00  1.00000000E+00
  0.00000000E+00  1.00000000E+00  0.00000000E+00  0.00000000E+00  0.00000000E+00
  0.00000000E+00  0.00000000E+00  0.00000000E+00  0.00000000E+00  0.00000000E+00
  0.00000000E+00  0.00000000E+00
MxBond                                     I                2
NBond                                      I   N=           3
           1           1           2
IBond                                      I   N=           6
           3           0           3           0           1           2
RBond                                      R   N=           6
  1.00000000E+00  0.00000000E+00  1.00000000E+00  0.00000000E+00  1.00000000E+00
  1.00000000E+00
Virial Ratio                               R      2.007835267512089E+00
SCF Energy                                 R     -7.640886146888943E+01
Total Energy                               R     -7.640886146888943E+01
RMS Force                                  R      1.952828557320072E-03
RMS Density                                R      8.119684230034213E-10
NImag                                      I                0
Job Status                                 I                1
Nuclear derivative order                   I                2
External E-field                           R   N=          35
  0.00000000E+00  0.00000000E+00  0.00000000E+00  0.00000000E+00  0.00000000E+00
  0.00000000E+00  0.00000000E+00  0.00000000E+00  0.00000000E+00  0.00000000E+00
  0.00000000E+00  0.00000000E+00  0.00000000E+00  0.00000000E+00  0.00000000E+00
  0.00000000E+00  0.00000000E+00  0.00000000E+00  0.00000000E+00  0.00000000E+00
  0.00000000E+00  0.00000000E+00  0.00000000E+00  0.00000000E+00  0.00000000E+00
  0.00000000E+00  0.00000000E+00  0.00000000E+00  0.00000000E+00  0.00000000E+00
  0.00000000E+00  0.00000000E+00  0.00000000E+00  0.00000000E+00  0.00000000E+00
IOpCl                                      I                0
IROHF                                      I                0
Alpha Orbital Energies                     R   N=          19
 -1.91372080E+01 -9.96163029E-01 -5.20160160E-01 -3.68395193E-01 -2.90530817E-01
  6.27639924E-02  1.48543296E-01  7.79452668E-01  8.55120759E-01  8.91245890E-01
  8.93752659E-01  1.06752859E+00  1.18672418E+00  1.73471790E+00  1.74502865E+00
  1.78205308E+00  2.28142468E+00  2.57904811E+00  3.55508430E+00
Alpha MO coefficients                      R   N=         361
  3.73210049E-04 -1.04725644E-03  3.73210049E-04 -1.04725644E-03  9.92857600E-01
  2.62184764E-02  0.00000000E+00  0.00000000E+00 -1.09522419E-03  1.01460495E-02
  0.00000000E+00  0.00000000E+00 -1.27246051E-06 -7.73115637E-03 -7.77527752E-03
 -7.75276328E-03  0.00000000E+00  0.00000000E+00  0.00000000E+00  1.38577377E-01
  6.51816666E-03  1.38577377E-01  6.51816666E-03 -2.09808268E-01  4.69741912E-01
  0.00000000E+00  0.00000000E+00 -1.25492937E-01  4.40768947E-01  0.00000000E+00
  0.00000000E+00 -5.97576590E-02 -1.09168440E-02  1.95881869E-02  1.50858214E-02
  0.00000000E+00  0.00000000E+00  0.00000000E+00  2.38332108E-01  1.39963048E-01
 -2.38332108E-01 -1.39963048E-01  0.00000000E+00  0.00000000E+00  0.00000000E+00
  5.16438491E-01  0.00000000E+00  0.00000000E+00  0.00000000E+00  2.68140746E-01
  0.00000000E+00  0.00000000E+00  0.00000000E+00  0.00000000E+00  0.00000000E+00
  0.00000000E+00 -4.06897633E-02 -1.42114309E-01 -1.13781935E-01 -1.42114309E-01
 -1.13781935E-01 -8.67660062E-02  1.74359203E-01  0.00000000E+00  0.00000000E+00
  5.54259103E-01  4.05786545E-01  0.00000000E+00  0.00000000E+00  3.76304586E-01
 -1.83332214E-04  8.23437892E-04 -5.18245144E-02  0.00000000E+00  0.00000000E+00
  0.00000000E+00  0.00000000E+00  0.00000000E+00  0.00000000E+00  0.00000000E+00
  0.00000000E+00  0.00000000E+00  6.44368017E-01  0.00000000E+00  0.00000000E+00
  0.00000000E+00  5.06295918E-01  0.00000000E+00  0.00000000E+00  0.00000000E+00
  0.00000000E+00  0.00000000E+00  0.00000000E+00 -3.49454918E-02  0.00000000E+00
 -9.85340106E-02 -9.70605968E-01 -9.85340106E-02 -9.70605968E-01 -1.01470937E-01
  1.20837374E-01  0.00000000E+00  0.00000000E+00 -2.77577318E-01  1.26248208E+00
  0.00000000E+00  0.00000000E+00 -4.70932981E-01 -5.79297597E-02 -4.53153264E-02
 -2.80692801E-02  0.00000000E+00  0.00000000E+00  0.00000000E+00  1.04680814E-01
  1.27463208E+00 -1.04680814E-01 -1.27463208E+00  0.00000000E+00  0.00000000E+00
  0.00000000E+00 -4.13041269E-01  0.00000000E+00  0.00000000E+00  0.00000000E+00
 -7.63091674E-01  0.00000000E+00  0.00000000E+00  0.00000000E+00  0.00000000E+00
  0.00000000E+00  0.00000000E+00  1.87225993E-02  8.42216739E-01 -6.47573822E-01
 -8.42216739E-01  6.47573822E-01  0.00000000E+00  0.00000000E+00  0.00000000E+00
 -1.84586582E-01  0.00000000E+00  0.00000000E+00  0.00000000E+00 -4.28929056E-01
  0.00000000E+00  0.00000000E+00  0.00000000E+00  0.00000000E+00  0.00000000E+00
  0.00000000E+00 -1.99117833E-01  7.63481883E-01 -5.78853031E-01  7.63481883E-01
 -5.78853031E-01  4.00933041E-02 -1.99254933E-01  0.00000000E+00  0.00000000E+00
  6.29583781E-01  2.26631803E-01  0.00000000E+00  0.00000000E+00 -2.74830595E-01
 -1.44485391E-01  1.49558343E-01 -1.83247673E-02  0.00000000E+00  0.00000000E+00
  0.00000000E+00  0.00000000E+00  0.00000000E+00  0.00000000E+00  0.00000000E+00
  0.00000000E+00  0.00000000E+00 -9.59575388E-01  0.00000000E+00  0.00000000E+00
  0.00000000E+00  1.03852374E+00  0.00000000E+00  0.00000000E+00  0.00000000E+00
  0.00000000E+00  0.00000000E+00  0.00000000E+00 -1.60057679E-02  0.00000000E+00
  3.90351284E-01 -3.03025052E-01  3.90351284E-01 -3.03025052E-01  7.44274839E-03
 -7.87312281E-01  0.00000000E+00  0.00000000E+00 -6.44317455E-01  1.32564856E+00
  0.00000000E+00  0.00000000E+00  8.80311431E-01 -3.02853712E-01 -1.60663604E-01
 -2.70859239E-01  0.00000000E+00  0.00000000E+00  0.00000000E+00  9.45658956E-03
 -9.21482769E-01 -9.45658956E-03  9.21482769E-01  0.00000000E+00  0.00000000E+00
  0.00000000E+00 -9.88513697E-01  0.00000000E+00  0.00000000E+00  0.00000000E+00
  1.64168026E+00  0.00000000E+00  0.00000000E+00  0.00000000E+00  0.00000000E+00
  0.00000000E+00  0.00000000E+00  2.11048812E-02 -3.23071612E-01 -7.89633884E-01
 -3.23071612E-01 -7.89633884E-01 -8.07258878E-02 -1.47857392E+00  0.00000000E+00
  0.00000000E+00  4.02083788E-01  3.62509770E+00  0.00000000E+00  0.00000000E+00
 -1.07495618E+00 -2.70398973E-01 -6.56972313E-01 -3.91013265E-01  0.00000000E+00
  0.00000000E+00  0.00000000E+00  8.46961576E-02  4.17737236E-02  8.46961576E-02
  4.17737236E-02  7.61012083E-03  9.10723990E-02  0.00000000E+00  0.00000000E+00
 -8.64909940E-03 -2.55724146E-01  0.00000000E+00  0.00000000E+00  1.42681512E-01
 -3.77285918E-01 -5.66747661E-01  1.01205485E+00  0.00000000E+00  0.00000000E+00
  0.00000000E+00  0.00000000E+00  0.00000000E+00  0.00000000E+00  0.00000000E+00
  0.00000000E+00  0.00000000E+00  0.00000000E+00  0.00000000E+00  0.00000000E+00
  0.00000000E+00  0.00000000E+00  0.00000000E+00  0.00000000E+00  0.00000000E+00
  0.00000000E+00  0.00000000E+00  1.00000000E+00  0.00000000E+00  0.00000000E+00
  0.00000000E+00  0.00000000E+00  0.00000000E+00  0.00000000E+00  0.00000000E+00
  0.00000000E+00  7.16431042E-03  0.00000000E+00  0.00000000E+00  0.00000000E+00
  3.43405060E-02  0.00000000E+00  0.00000000E+00  0.00000000E+00  0.00000000E+00
  0.00000000E+00  0.00000000E+00  9.99261041E-01  0.00000000E+00 -8.07230606E-01
 -1.35574459E-01 -8.07230606E-01 -1.35574459E-01 -5.10015692E-02 -5.07247099E-01
  0.00000000E+00  0.00000000E+00  6.00354985E-02  1.51626020E+00  0.00000000E+00
  0.00000000E+00 -7.16336961E-01 -1.11805126E+00  7.68185580E-01  3.02859665E-02
  0.00000000E+00  0.00000000E+00  0.00000000E+00  9.28551927E-01 -4.10244415E-02
 -9.28551927E-01  4.10244415E-02  0.00000000E+00  0.00000000E+00  0.00000000E+00
  4.02213583E-02  0.00000000E+00  0.00000000E+00  0.00000000E+00 -8.67707929E-01
  0.00000000E+00  0.00000000E+00  0.00000000E+00  0.00000000E+00  0.00000000E+00
  0.00000000E+00  1.27013923E+00  1.19189357E-01 -5.57792474E-01  1.19189357E-01
 -5.57792474E-01 -4.68215516E-01  2.85527936E-01  0.00000000E+00  0.00000000E+00
  1.14850602E-01  3.69482121E+00  0.00000000E+00  0.00000000E+00 -3.27017267E-01
 -1.57837243E+00 -1.52777154E+00 -1.55228923E+00  0.00000000E+00  0.00000000E+00
  0.00000000E+00
Orthonormal basis                          R   N=         361
  1.16511047E-01  1.60916739E-01  1.16511047E-01  1.60916739E-01  3.18500090E-02
  1.59534830E-01  0.00000000E+00  0.00000000E+00 -2.59097840E-02  2.05732745E-01
  0.00000000E+00  0.00000000E+00 -5.18746823E-02  1.36606234E-01  1.54597868E-01
  1.47008862E-01  0.00000000E+00  0.00000000E+00  0.00000000E+00 -1.74117926E-01
 -9.41808571E-02 -1.74117926E-01 -9.41808571E-02  6.46233179E-02  1.80719118E-01
  0.00000000E+00  0.00000000E+00  3.97778882E-01  1.33382250E-01  0.00000000E+00
  0.00000000E+00  4.76328052E-01  1.54067362E-01  7.08233023E-02  1.05936272E-01
  0.00000000E+00  0.00000000E+00  0.00000000E+00 -6.67612875E-02 -8.09105130E-02
 -6.67612875E-02 -8.09105130E-02  9.13665958E-01  2.15327974E-01  0.00000000E+00
  0.00000000E+00 -1.93425157E-01  5.92764756E-03  0.00000000E+00  0.00000000E+00
 -8.62212954E-02 -1.43335315E-02 -1.24012118E-01 -7.77488667E-02  0.00000000E+00
  0.00000000E+00  0.00000000E+00 -2.73303331E-01 -1.83574771E-01 -2.73303331E-01
 -1.83574771E-01 -2.88016033E-01  2.80353946E-01  0.00000000E+00  0.00000000E+00
 -5.78790140E-01  7.08158081E-02  0.00000000E+00  0.00000000E+00 -5.63553038E-02
  6.23485346E-01 -2.88440323E-01  9.62167739E-02  0.00000000E+00  0.00000000E+00
  0.00000000E+00  9.00126761E-02 -3.95855538E-01  9.00126761E-02 -3.95855538E-01
 -1.18694086E-01  3.30251992E-01  0.00000000E+00  0.00000000E+00 -4.90808298E-01
 -9.62551072E-03  0.00000000E+00  0.00000000E+00  2.39317851E-01 -5.07896903E-01
  6.68090639E-01  1.72050261E-01  0.00000000E+00  0.00000000E+00  0.00000000E+00
 -5.65418923E-17  1.81664920E-16 -5.65418923E-17  1.81664920E-16 -1.40325061E-16
 -2.19358024E-16  0.00000000E+00  0.00000000E+00  5.08412099E-16  3.91428616E-16
  0.00000000E+00  0.00000000E+00 -3.50058625E-16 -4.20098646E-01 -5.75850063E-01
  9.95948710E-01  0.00000000E+00  0.00000000E+00  0.00000000E+00 -1.05751797E-01
  3.94651817E-01 -1.05751797E-01  3.94651817E-01  1.69765806E-01 -7.74768111E-01
  0.00000000E+00  0.00000000E+00 -7.26562731E-01  2.21503127E-01  0.00000000E+00
  0.00000000E+00  9.03718646E-01 -3.93549690E-02  2.55716399E-02 -1.81489141E-03
  0.00000000E+00  0.00000000E+00  0.00000000E+00  7.44117913E-01 -6.59483738E-01
  7.44117913E-01 -6.59483738E-01  2.66333430E-01 -8.17122201E-01  0.00000000E+00
  0.00000000E+00  1.03960103E-01 -6.34784451E-03  0.00000000E+00  0.00000000E+00
  1.20293471E-01  8.21323906E-01  3.27077469E-02  3.65351966E-01  0.00000000E+00
  0.00000000E+00  0.00000000E+00  9.02633347E-01  5.97694712E-02  9.02633347E-01
  5.97694712E-02 -2.59809130E-01  9.72277819E-01  0.00000000E+00  0.00000000E+00
 -1.83638531E-01 -7.29241421E-02  0.00000000E+00  0.00000000E+00  9.32838061E-01
 -2.20991116E-01 -1.14307953E+00 -7.54135710E-01  0.00000000E+00  0.00000000E+00
  0.00000000E+00 -2.25779135E-01 -1.22914083E+00 -2.25779135E-01 -1.22914083E+00
 -4.16416238E-01 -9.76622533E-01  0.00000000E+00  0.00000000E+00  2.13157557E-01
  5.72707653E+00  0.00000000E+00  0.00000000E+00 -1.00726093E+00 -1.57548444E+00
 -1.23040364E+00 -1.37596132E+00  0.00000000E+00  0.00000000E+00  0.00000000E+00
  0.00000000E+00  0.00000000E+00  0.00000000E+00  0.00000000E+00  0.00000000E+00
  0.00000000E+00  0.00000000E+00  0.00000000E+00  0.00000000E+00  0.00000000E+00
  0.00000000E+00  0.00000000E+00  0.00000000E+00  0.00000000E+00  0.00000000E+00
  0.00000000E+00  1.00000000E+00  0.00000000E+00  0.00000000E+00  0.00000000E+00
  0.00000000E+00  0.00000000E+00  0.00000000E+00  0.00000000E+00  0.00000000E+00
  5.77057836E-01  0.00000000E+00  0.00000000E+00  0.00000000E+00  5.77057836E-01
  0.00000000E+00  0.00000000E+00  0.00000000E+00  0.00000000E+00  0.00000000E+00
  0.00000000E+00  0.00000000E+00  0.00000000E+00  0.00000000E+00  0.00000000E+00
  0.00000000E+00  0.00000000E+00  0.00000000E+00  0.00000000E+00  0.00000000E+00
  0.00000000E+00  0.00000000E+00  0.00000000E+00  0.00000000E+00  0.00000000E+00
  0.00000000E+00  0.00000000E+00  0.00000000E+00  0.00000000E+00  0.00000000E+00
  1.00000000E+00  0.00000000E+00  0.00000000E+00  0.00000000E+00  0.00000000E+00
  0.00000000E+00  0.00000000E+00  0.00000000E+00  1.00152416E+00  0.00000000E+00
  0.00000000E+00  0.00000000E+00 -1.00152416E+00  0.00000000E+00  0.00000000E+00
  0.00000000E+00  0.00000000E+00  0.00000000E+00  0.00000000E+00  0.00000000E+00
  0.00000000E+00  2.62443653E-01  1.66927467E-01 -2.62443653E-01 -1.66927467E-01
  0.00000000E+00  0.00000000E+00  0.00000000E+00  2.65637676E-01  0.00000000E+00
  0.00000000E+00  0.00000000E+00  3.83854814E-01  0.00000000E+00  0.00000000E+00
  0.00000000E+00  0.00000000E+00  0.00000000E+00  0.00000000E+00 -1.43716047E-01
 -1.81356950E-01  2.53520961E-02  1.81356950E-01 -2.53520961E-02  0.00000000E+00
  0.00000000E+00  0.00000000E+00  3.71752970E-01  0.00000000E+00  0.00000000E+00
  0.00000000E+00  2.58647576E-01  0.00000000E+00  0.00000000E+00  0.00000000E+00
  0.00000000E+00  0.00000000E+00  0.00000000E+00  7.74490229E-01 -1.37024869E-01
 -3.22479003E-01  1.37024869E-01  3.22479003E-01  0.00000000E+00  0.00000000E+00
  0.00000000E+00  9.75357744E-01  0.00000000E+00  0.00000000E+00  0.00000000E+00
 -3.54242824E-01  0.00000000E+00  0.00000000E+00  0.00000000E+00  0.00000000E+00
  0.00000000E+00  0.00000000E+00 -3.92926685E-01  1.20958764E+00 -7.14799744E-01
 -1.20958764E+00  7.14799744E-01  0.00000000E+00  0.00000000E+00  0.00000000E+00
 -3.56671386E-02  0.00000000E+00  0.00000000E+00  0.00000000E+00 -6.85851450E-01
  0.00000000E+00  0.00000000E+00  0.00000000E+00  0.00000000E+00  0.00000000E+00
  0.00000000E+00  8.59443732E-01  2.36098144E-01  1.50698476E+00 -2.36098144E-01
 -1.50698476E+00  0.00000000E+00  0.00000000E+00  0.00000000E+00  5.37403553E-01
  0.00000000E+00  0.00000000E+00  0.00000000E+00 -1.86442923E+00  0.00000000E+00
  0.00000000E+00  0.00000000E+00  0.00000000E+00  0.00000000E+00  0.00000000E+00
  3.76601740E-01
Total SCF Density                          R   N=         190
  1.92404999E-01  1.00861218E-01  6.51591336E-02 -3.48037768E-02 -3.25695356E-02
  1.92404999E-01 -3.25695356E-02 -1.31994860E-02  1.00861218E-01  6.51591336E-02
 -3.27468882E-02  1.49301245E-02 -3.27468882E-02  1.49301245E-02  2.07462812E+00
  8.06528989E-02 -3.36090577E-02  8.06528989E-02 -3.36090577E-02 -1.75305951E-01
  5.03492008E-01 -3.08148791E-33 -1.54074396E-33  3.08148791E-33  1.54074396E-33
  0.00000000E+00  0.00000000E+00  8.30420282E-01  2.46167749E-01  1.44564611E-01
 -2.46167749E-01 -1.44564611E-01  0.00000000E+00  0.00000000E+00  3.08148791E-33
  5.33417431E-01 -1.92318080E-01 -1.27763020E-01 -1.92318080E-01 -1.27763020E-01
 -4.56975892E-02  7.53243364E-02  0.00000000E+00  1.99035049E-33  6.45905661E-01
  6.83263376E-03 -8.66175964E-02  6.83263376E-03 -8.66175964E-02 -2.35223730E-01
  5.56132561E-01  0.00000000E+00  1.04515679E-33  3.39172769E-01  7.18085854E-01
 -1.54074396E-33 -1.15555797E-33  1.54074396E-33  1.15555797E-33  0.00000000E+00
  0.00000000E+00  6.52481793E-01  4.62223187E-33 -2.01061476E-33  0.00000000E+00
  5.12671112E-01  1.27813099E-01  7.50595923E-02 -1.27813099E-01 -7.50595923E-02
  0.00000000E+00  0.00000000E+00  4.62223187E-33  2.76956405E-01  1.70687563E-33
  0.00000000E+00  3.08148791E-33  1.43798919E-01 -1.23518652E-01 -8.64123457E-02
 -1.23518652E-01 -8.64123457E-02 -4.02281169E-02  7.50829147E-02  0.00000000E+00
  1.33163054E-33  4.32138816E-01  2.52720009E-01  0.00000000E+00  8.94716912E-34
  2.90352238E-01 -2.97931763E-03 -8.44028222E-05 -2.97931763E-03 -8.44028222E-05
 -1.07391724E-02 -1.07255279E-02  0.00000000E+00  7.86913784E-36  2.55368123E-03
 -9.92928052E-03  0.00000000E+00  3.59539457E-36  1.16677225E-03  3.57963743E-04
  5.18911088E-03  8.42588394E-05  5.18911088E-03  8.42588394E-05 -2.38019067E-02
  1.82822208E-02 -2.67276471E-51 -2.36597661E-34 -3.98653097E-03  1.77782324E-02
 -8.68648531E-51 -1.21770269E-34 -1.72134169E-03 -3.07760512E-04  8.89660112E-04
  1.89053304E-02  1.20062891E-02  1.89053304E-02  1.20062891E-02 -1.27318278E-02
 -4.30580812E-03  2.40367764E-34 -6.37268227E-34 -6.12177638E-02 -2.89179778E-02
  1.88862908E-34 -3.58676908E-34 -4.08065719E-02 -1.90501261E-04  6.26219014E-04
  5.94693528E-03 -1.11193617E-34 -2.60610040E-36 -1.11193617E-34 -2.60610040E-36
  5.55968086E-35 -4.44774469E-34 -1.38776393E-34  0.00000000E+00  1.11193617E-34
 -4.44774469E-34 -1.09040051E-34  0.00000000E+00  2.77984043E-35  1.38992021E-35
 -2.08488032E-35 -1.04244016E-35  1.86284651E-35  2.22387234E-34  1.11193617E-34
 -2.22387234E-34 -1.11193617E-34  3.82120777E-35  3.81635278E-35 -4.50355144E-02
  5.55968086E-35  1.29689896E-34  3.53303238E-35 -3.53855196E-02 -3.33580852E-34
  1.04888447E-34 -1.27370507E-36  1.09507215E-36 -1.23578306E-35  7.52614838E-36
  2.44237479E-03 -1.93953542E-02 -1.13901266E-02  1.93953542E-02  1.13901266E-02
 -2.14686022E-34  1.14782533E-34  5.55968086E-35 -4.20275199E-02 -5.05209091E-34
  2.36210358E-35 -3.33580852E-34 -2.18211670E-02 -2.91930836E-34 -2.86798507E-36
  2.62328328E-35  6.09636862E-35 -1.78184314E-51 -8.02470810E-36  3.31131367E-03
Grdnt Energy                               R     -7.640886146888943E+01
Grdnt NVar                                 I                0
Grdnt IGetFC                               I                4
Mulliken Charges                           R   N=           3
  3.88787857E-01  3.88787857E-01 -7.77575713E-01
ONIOM Charges                              I   N=          16
           0           0           0           0           0           0
           0           0           0           0           0           0
           0           0           0           0
ONIOM Multiplicities                       I   N=          16
           1           0           0           0           0           0
           0           0           0           0           0           0
           0           0           0           0
Atom Layers                                I   N=           3
           1           1           1
Atom Modifiers                             I   N=           3
           0           0           0
Force Field                                I                0
Atom Modified Types                        C   N=           3
                                    
Int Atom Modified Types                    I   N=           3
           0           0           0
Link Atoms                                 I   N=           3
           0           0           0
Atom Modified MM Charges                   R   N=           3
  0.00000000E+00  0.00000000E+00  0.00000000E+00
Link Distances                             R   N=          12
  0.00000000E+00  0.00000000E+00  0.00000000E+00  0.00000000E+00  0.00000000E+00
  0.00000000E+00  0.00000000E+00  0.00000000E+00  0.00000000E+00  0.00000000E+00
  0.00000000E+00  0.00000000E+00
Cartesian Gradient                         R   N=           9
  2.49218821E-17  2.79971580E-03  1.76281202E-03 -7.31680527E-16 -2.79971580E-03
  1.76281202E-03  7.06758644E-16  1.11815569E-16 -3.52562404E-03
Cartesian Force Constants                  R   N=          45
  1.81333052E-04  4.17729113E-14  3.59559079E-01 -2.92612909E-14 -2.19098654E-01
  2.07311476E-01 -1.75585282E-03  2.42854500E-14 -1.92315401E-14  1.81333052E-04
  2.42880786E-14 -2.86373448E-02 -3.37314085E-02  4.12044850E-14  3.59559079E-01
  1.92351800E-14  3.37314085E-02  1.31303401E-02  2.88901916E-14  2.19098654E-01
  2.07311476E-01  1.57452008E-03 -6.64238098E-15  5.08135487E-15  1.57452031E-03
  3.92543577E-15  1.98224224E-15 -3.14904125E-03 -7.18565233E-14 -3.30921734E-01
  2.52830062E-01 -5.60192145E-14 -3.30921734E-01 -2.52830062E-01 -9.58241896E-16
  6.61843468E-01  5.78508951E-15  1.85367246E-01 -2.20441816E-01 -1.91374473E-15
 -1.85367245E-01 -2.20441815E-01 -1.05674825E-14 -8.29651281E-10  4.40883631E-01
Nonadiabatic coupling                      R   N=           9
  0.00000000E+00  0.00000000E+00  0.00000000E+00  0.00000000E+00  0.00000000E+00
  0.00000000E+00  0.00000000E+00  0.00000000E+00  0.00000000E+00
Dipole Moment                              R   N=           3
 -6.69879804E-17  5.14996032E-19 -8.13142096E-01
Dipole Derivatives                         R   N=          27
  3.66854111E-01 -6.86884274E-13  6.52878500E-14  1.09591566E-14  2.08558055E-01
  9.10034808E-02 -8.50436207E-15  1.20367440E-01  1.72551995E-01  3.66854111E-01
 -7.08851378E-13 -6.43350908E-14  5.30552590E-15  2.08558055E-01 -9.10034829E-02
  4.78337014E-15 -1.20367440E-01  1.72551989E-01 -7.33708217E-01  6.53008139E-14
 -1.40534137E-15 -7.38775492E-15 -4.17116113E-01  1.76858319E-09  1.18007251E-14
 -3.45636393E-09 -3.45103985E-01
Polarizability                             R   N=           6
  2.83146774E+00  2.71493283E-14  7.45806367E+00 -5.23878028E-15 -1.42555686E-08
  5.31978127E+00
Quadrupole Moment                          R   N=           6
 -1.03281257E+00  1.19811552E+00 -1.65302953E-01  9.71359547E-17  5.65734404E-17
 -2.82807360E-17
QEq coupling tensors                       R   N=          18
  2.55714300E-01 -1.01373122E-18 -2.15397780E-01  2.52215244E-19  3.07845810E-01
 -4.03165199E-02  2.55714300E-01 -8.84951836E-17 -2.15397780E-01 -6.77728502E-17
 -3.07845810E-01 -4.03165199E-02  1.90564011E+00  5.47630174E-17 -1.63540555E+00
  4.38261441E-17 -2.64596020E-17 -2.70234562E-01
Number of Normal Modes                     I                3
Vib-LE2Fix                                 I               14