ITEM: TIMESTEP
0
ITEM: NUMBER OF ATOMS
108
ITEM: BOX BOUNDS pp pp pp
0.0000000000000000e+00 1.2150000000000000e+01
0.0000000000000000e+00 1.2149999999999990e+01
0.0000000000000000e+00 1.2149999999999990e+01
ITEM: ATOMS id type xsu ysu zsu fx fy fz 
1 1                    0                    0                    0 -5.55111512312578e-16 2.32730501537048e-14 2.34534613952064e-14 
2 1                    0    0.166666666666629    0.166666666666629 -1.38777878078145e-16 9.71445146547012e-17 2.63677968348475e-16 
3 1    0.166666666666629                    0    0.166666666666629  1.0547118733939e-15 2.37310171513627e-14  2.4980018054066e-16 
4 1    0.166666666666629    0.166666666666629                    0 1.13797860024079e-15 1.21430643318376e-15 2.44734787990808e-14 
5 1                    0    0.333333333333371                    0 -3.19189119579733e-16 -7.63278329429795e-17 2.19685380997703e-14 
6 1                    0                  0.5    0.166666666666629 -6.38378239159465e-16 3.13192126313172e-16 5.27355936696949e-16 
7 1    0.166666666666629    0.333333333333371    0.166666666666629 1.94289029309402e-16 -9.08995101411847e-16 3.59087759527199e-16 
8 1    0.166666666666629                  0.5                    0 1.49880108324396e-15 1.78781550111071e-15 2.45278481498992e-14 
9 1                    0    0.666666666666629                    0 -5.27355936696949e-16 9.29811783123569e-16 2.32938668354166e-14 
10 1                    0    0.833333333333371    0.166666666666629 -5.96744875736022e-15 -2.47198095326695e-14 1.11022302462516e-15 
11 1    0.166666666666629    0.666666666666629    0.166666666666629 2.05391259555654e-15 1.26634813746307e-16 -4.66640615037761e-16 
12 1    0.166666666666629    0.833333333333371                    0 2.88657986402541e-15 -2.39183672867682e-14 2.31065167000111e-14 
13 1    0.333333333333371                    0                    0 -1.00855196590033e-15 2.29551010903599e-14 2.30938688040427e-14 
14 1    0.333333333333371    0.166666666666629    0.166666666666629 -1.46917525888079e-15 3.33371839248559e-16 2.90003752349138e-16 
15 1                  0.5                    0    0.166666666666629 2.07305554016449e-15 2.38018595989393e-14 1.52655665885959e-16 
16 1                  0.5    0.166666666666629                    0 1.95291916318951e-15 1.02695629777827e-15 2.45512838574838e-14 
17 1    0.333333333333371    0.333333333333371                    0 -3.11816544806831e-16 -5.53901949263899e-16 2.32203071061452e-14 
18 1    0.333333333333371                  0.5    0.166666666666629 -3.60307486971245e-16 1.07339308014863e-15 -4.15988044791954e-16 
19 1                  0.5    0.333333333333371    0.166666666666629 1.41214510655716e-15 -1.12757025938492e-16 3.33348122326035e-16 
20 1                  0.5                  0.5                    0 2.86648146625296e-15 1.02176906800928e-15 2.46263614697966e-14 
21 1    0.333333333333371    0.666666666666629                    0 -2.53922859301536e-15 1.48466579742018e-15 2.38161947845386e-14 
22 1    0.333333333333371    0.833333333333371    0.166666666666629 -2.80542733141487e-15 -2.47379631427951e-14 -4.12911621127526e-17 
23 1                  0.5    0.666666666666629    0.166666666666629 -3.6120664305677e-16 -2.60208521396521e-16 1.97758476261356e-16 
24 1                  0.5    0.833333333333371                    0 -5.8261636617582e-16 -2.42583730880597e-14 2.46768886791662e-14 
25 1    0.666666666666629                    0                    0 1.81799020282369e-15 2.40953090813179e-14 2.42913328341032e-14 
26 1    0.666666666666629    0.166666666666629    0.166666666666629 1.04083408558608e-16 4.04190569902596e-16  4.0766001685455e-16 
27 1    0.833333333333371                    0    0.166666666666629 2.08166817117217e-16 2.24299745443801e-14 2.22044604925031e-16 
28 1    0.833333333333371    0.166666666666629                    0 1.94289029309402e-16 1.23512311489549e-15  2.3189783426858e-14 
29 1    0.666666666666629    0.333333333333371                    0 1.08246744900953e-15 1.22921421305544e-16 2.34395836073986e-14 
30 1    0.666666666666629                  0.5    0.166666666666629 1.66533453693773e-16                    0 9.71445146547012e-17 
31 1    0.833333333333371    0.333333333333371    0.166666666666629 -1.38777878078145e-16 -5.70425867998936e-17 3.88578058618805e-16 
32 1    0.833333333333371                  0.5                    0 2.77555756156289e-16 1.26287869051112e-15 2.33493779866478e-14 
33 1    0.666666666666629    0.666666666666629                    0 1.60982338570648e-15 4.77048955893622e-16 2.45012343746964e-14 
34 1    0.666666666666629    0.833333333333371    0.166666666666629 9.97465998686664e-16 -2.32730501537048e-14 9.71445146547012e-17 
35 1    0.833333333333371    0.666666666666629    0.166666666666629 2.66453525910038e-15 1.38777878078145e-15 1.42941214420489e-15 
36 1    0.833333333333371    0.833333333333371                    0 1.66533453693773e-15 -2.39530617562878e-14 2.40224506953268e-14 
37 1                    0                    0    0.333333333333371 -2.77555756156289e-16 2.30891694652513e-14 -8.88178419700125e-16 
38 1                    0    0.166666666666629                  0.5 -5.68989300120393e-16 1.02695629777827e-15 9.47159017883337e-16 
39 1    0.166666666666629                    0                  0.5 1.41553435639707e-15 2.41959230429245e-14 1.55812049460607e-15 
40 1    0.166666666666629    0.166666666666629    0.333333333333371 8.32667268468867e-17 3.90312782094782e-16 -6.24500451351651e-16 
41 1                    0    0.333333333333371    0.333333333333371 -9.71445146547012e-17 6.93889390390723e-17 1.17961196366423e-16 
42 1                    0                  0.5                  0.5 -4.96824803519758e-15 1.97201467395242e-15 8.92854041568969e-16 
43 1    0.166666666666629    0.333333333333371                  0.5 -1.72084568816899e-15 -2.53269627492614e-16 1.02348685082632e-15 
44 1    0.166666666666629                  0.5    0.333333333333371 -1.84574577843932e-15 7.70252239692037e-16 -2.0122792321331e-16 
45 1                    0    0.666666666666629    0.333333333333371 -5.60662627435704e-15 6.24500451351651e-17 2.63677968348475e-16 
46 1                    0    0.833333333333371                  0.5 -5.32907051820075e-15 -2.64267774330307e-14 1.73472347597681e-15 
47 1    0.166666666666629    0.666666666666629                  0.5 5.55111512312578e-17 5.06539254985228e-16 7.52869988573934e-16 
48 1    0.166666666666629    0.833333333333371    0.333333333333371 -1.20736753927986e-15 -2.4605317783255e-14 -9.35015953551499e-16 
49 1    0.333333333333371                    0    0.333333333333371 -3.76163943743846e-16  2.4120791220503e-14 -1.22018484183771e-15 
50 1    0.333333333333371    0.166666666666629                  0.5 -3.75540527494667e-16 -1.10700429942559e-16 1.48073217641313e-15 
51 1                  0.5                    0                  0.5 2.75899637337818e-15  2.4495620240322e-14   7.950827225333e-16 
52 1                  0.5    0.166666666666629    0.333333333333371 1.43258134858906e-15  2.4980018054066e-16 -3.46944695195361e-16 
53 1    0.333333333333371    0.333333333333371    0.333333333333371 -9.20311461587164e-16 -1.06593336587912e-15 -9.09713385351119e-16 
54 1    0.333333333333371                  0.5                  0.5 7.46581615973518e-16 1.84680401059794e-15 6.91422830448318e-16 
55 1                  0.5    0.333333333333371                  0.5 2.33746534497939e-15 -1.21159592775255e-17 6.28417131699754e-16 
56 1                  0.5                  0.5    0.333333333333371 2.38239874876534e-15 4.31658154316159e-16 1.36907629330607e-16 
57 1    0.333333333333371    0.666666666666629    0.333333333333371 -1.19655262260931e-15  6.7776527120679e-16 -2.93649382154121e-16 
58 1    0.333333333333371    0.833333333333371                  0.5 -1.38821246165044e-15 -2.52308109572209e-14 1.80403448798473e-15 
59 1                  0.5    0.666666666666629                  0.5 4.76981193257842e-16 -1.52655665885959e-16 -6.29955343531968e-17 
60 1                  0.5    0.833333333333371    0.333333333333371 -4.78770126842443e-16 -2.48566629518915e-14 -9.68070567285151e-16 
61 1    0.666666666666629                    0    0.333333333333371 1.00613961606655e-15 2.43693953905222e-14 -5.13478148889135e-16 
62 1    0.666666666666629    0.166666666666629                  0.5 2.91433543964104e-16 4.61436444609831e-16 5.13478148889135e-16 
63 1    0.833333333333371                    0                  0.5 2.42861286636753e-16 2.29399832463173e-14 1.08940634291343e-15 
64 1    0.833333333333371    0.166666666666629    0.333333333333371 -7.63278329429795e-17 2.63677968348475e-16 -7.97972798949331e-17 
65 1    0.666666666666629    0.333333333333371    0.333333333333371 8.35343892582191e-17 5.67579837296162e-17 4.27074012005618e-17 
66 1    0.666666666666629                  0.5                  0.5 6.93889390390723e-16 8.15320033709099e-16 -4.63171168085807e-16 
67 1    0.833333333333371    0.333333333333371                  0.5 1.81799020282369e-15 1.30227588695381e-15 2.24820162486594e-15 
68 1    0.833333333333371                  0.5    0.333333333333371  1.8249290967276e-15 2.11983208764366e-15 1.16573417585641e-15 
69 1    0.666666666666629    0.666666666666629    0.333333333333371 1.52829138233557e-15 -3.05311331771918e-16 4.22893057377971e-16 
70 1    0.666666666666629    0.833333333333371                  0.5 2.24820162486594e-15 -2.46434816997265e-14 7.56339435525888e-16 
71 1    0.833333333333371    0.666666666666629                  0.5  4.3159920082303e-15 2.70616862252382e-16 1.38777878078145e-15 
72 1    0.833333333333371    0.833333333333371    0.333333333333371 3.36932765758816e-15 -2.59568706589483e-14 -8.46030060244751e-16 
73 1                    0                    0    0.666666666666629 -5.96744875736022e-16 2.25514051876985e-14 -1.38777878078145e-17 
74 1                    0    0.166666666666629    0.833333333333371 -6.43929354282591e-15 3.88578058618805e-15 -2.51881848711832e-14 
75 1    0.166666666666629                    0    0.833333333333371 3.40005801291454e-15 1.81504117291453e-14 -2.48481790698918e-14 
76 1    0.166666666666629    0.166666666666629    0.666666666666629 1.80411241501588e-15 1.47278023110431e-15 3.92047505570758e-16 
77 1                    0    0.333333333333371    0.666666666666629 -5.68989300120393e-15 -2.92127433354494e-15 7.49400541621981e-16 
78 1                    0                  0.5    0.833333333333371 -4.77395900588817e-15 -1.29398851659787e-15 -2.62290189567693e-14 
79 1    0.166666666666629    0.333333333333371    0.833333333333371 -1.4432899320127e-15  -2.468511506315e-15 -2.52593085336983e-14 
80 1    0.166666666666629                  0.5    0.666666666666629 -4.16333634234434e-16 -4.45823933326039e-16 5.20417042793042e-18 
81 1                    0    0.666666666666629    0.666666666666629 -5.41233724504764e-15 1.33226762955019e-15 -5.41233724504764e-16 
82 1                    0    0.833333333333371    0.833333333333371 -5.28743715477731e-15 -2.34950947586299e-14 -2.61700383585861e-14 
83 1    0.166666666666629    0.666666666666629    0.833333333333371 9.99200722162641e-16 1.73298875250083e-15 -2.37032615757471e-14 
84 1    0.166666666666629    0.833333333333371    0.666666666666629 1.04083408558608e-15 -2.31203944878189e-14 1.35828848168984e-15 
85 1    0.333333333333371                    0    0.666666666666629 -2.66261080024421e-15 2.30807025239105e-14 5.54826909242301e-16 
86 1    0.333333333333371    0.166666666666629    0.833333333333371 -2.94892148894332e-15 1.55498647270123e-15 -2.5147415481366e-14 
87 1                  0.5                    0    0.833333333333371 -5.4917550541822e-16 2.00413517975184e-14 -2.52436960224145e-14 
88 1                  0.5    0.166666666666629    0.666666666666629 -3.36164961004144e-16 1.85962356624714e-15 -2.20309881449055e-16 
89 1    0.333333333333371    0.333333333333371    0.666666666666629 -1.4528851212392e-15 -2.47701232897364e-15 1.37338260880991e-15 
90 1    0.333333333333371                  0.5    0.833333333333371 -1.37414493846244e-15 -7.06293340870315e-16 -2.46439729788359e-14 
91 1                  0.5    0.333333333333371    0.833333333333371 -6.83467497007706e-16 -2.24486770318555e-15 -2.54184897414099e-14 
92 1                  0.5                  0.5    0.666666666666629 2.06167819361697e-16 -1.31887095645641e-15 -4.64905891561784e-16 
93 1    0.333333333333371    0.666666666666629    0.666666666666629 -3.2172886316878e-15 2.08485979131742e-15 2.96309065608499e-16 
94 1    0.333333333333371    0.833333333333371    0.833333333333371 -4.51972714896748e-15 -2.23702553334669e-14 -2.50847621483235e-14 
95 1                  0.5    0.666666666666629    0.833333333333371 -3.34801630863524e-15 1.26981758441502e-15 -2.38004060904018e-14 
96 1                  0.5    0.833333333333371    0.666666666666629 -2.91433543964104e-15 -2.34048891378791e-14 6.52256026967279e-16 
97 1    0.666666666666629                    0    0.666666666666629 1.85962356624714e-15 2.37518338330744e-14 -3.22658566531686e-16 
98 1    0.666666666666629    0.166666666666629    0.833333333333371 1.63410951437015e-15 2.10595429983584e-15 -2.38212227721135e-14 
99 1    0.833333333333371                    0    0.833333333333371 1.98105420956551e-15  1.9744622603568e-14 -2.51465515077598e-14 
100 1    0.833333333333371    0.166666666666629    0.666666666666629 2.81719092498633e-15 3.80251385934116e-15 1.60982338570648e-15 
101 1    0.666666666666629    0.333333333333371    0.666666666666629 2.00707506170517e-15 -2.26685797965771e-15 6.03683769639929e-16 
102 1    0.666666666666629                  0.5    0.833333333333371 2.50494069931051e-15 -1.88564441838679e-15 -2.41300035508374e-14 
103 1    0.833333333333371    0.333333333333371    0.833333333333371 3.46647217224286e-15 -3.2607854675952e-15 -2.65882557940952e-14 
104 1    0.833333333333371                  0.5    0.666666666666629 3.60822483003176e-15 -3.57353036051222e-16 -1.2490009027033e-16 
105 1    0.666666666666629    0.666666666666629    0.666666666666629 3.06005221162309e-15 4.30211422042248e-16 -8.06646416329215e-16 
106 1    0.666666666666629    0.833333333333371    0.833333333333371  3.6498581934552e-15 -2.2310820725624e-14 -2.43940609899462e-14 
107 1    0.833333333333371    0.666666666666629    0.833333333333371 3.35322047906317e-15 1.87350135405495e-15 -2.52957377266938e-14 
108 1    0.833333333333371    0.833333333333371    0.666666666666629 4.13558076672871e-15 -2.48100151534203e-14 8.60422844084496e-16 
ITEM: TIMESTEP
100
ITEM: NUMBER OF ATOMS
108
ITEM: BOX BOUNDS pp pp pp
-1.0031488284308043e-01 1.2250314882843082e+01
-1.0031488284308043e-01 1.2250314882843071e+01
-1.0031488284308043e-01 1.2250314882843071e+01
ITEM: ATOMS id type xsu ysu zsu fx fy fz 
1 1  -0.0158090739029717 -0.00921372099770679  0.00407435628699204    0.349771194047558    0.584481233482385    0.117053962054044 
2 1 -0.000828917855415057    0.192293680909188    0.192832956567827   -0.631692361537761   -0.655887923847302   -0.597948755165609 
3 1    0.168478297468027  0.00133272436005427    0.170225234447798   -0.353970711112627   -0.072652901904509   -0.749966838680112 
4 1    0.137618078670926    0.152651587207515 -0.00192450577230829    0.236499343652785    0.122053949957289    0.524710049679577 
5 1   -0.020824870702711    0.339799677581027   0.0110195233883132    0.610410164373261   -0.628231154617255    0.493464859336241 
6 1 -0.00221532802754609    0.519501873247805    0.182276209015299   -0.674497245885501    -0.96543353162571    0.796392557825335 
7 1    0.126535318489914    0.358732717580779    0.174531388388345     1.00512394471575   -0.711350416172693    0.624664604416411 
8 1    0.152197505149502    0.501534582200861   0.0267798510388957    0.293070166666228   -0.114900954832345    -1.32875745335577 
9 1 0.000406958448706973     0.65232945308594   0.0280774547571809   -0.416812243220515     1.40626844843729   -0.617884585723096 
10 1  -0.0255912677922652    0.842299274271795    0.148525869377067    0.406351829405574    0.212280279758235    0.471113886906506 
11 1    0.178986507463151    0.687158053282587    0.149403722824445     0.47694611783157    0.273197672892319  -0.0509600180486207 
12 1     0.17521586867781    0.852449437272412 -0.00627665569857072   -0.339450457916972    0.571650611595846    0.366079696049664 
13 1    0.335223229903363   0.0438119937290367   0.0195318565812386   -0.227400617690735   -0.471223640901806    0.266522289644843 
14 1    0.296196205206343     0.21261535584938    0.156443667001213   0.0363937699382788  -0.0993722244789942   0.0832708374151546 
15 1    0.514456537421779  0.00481704695346252    0.156925482716701    0.356815700905398  -0.0506394613418834    0.109270875452975 
16 1    0.520731001531885     0.17070760818558   0.0135424267730286   -0.808672389550847      1.0857768050979   -0.268272584146062 
17 1    0.337809026500281     0.34123555733413   -0.027554091156901    0.396235130839877   -0.232357938828757    0.311732263865045 
18 1    0.323470621582146    0.514912271886033    0.141369960604152    0.594973710646224   -0.534219801021966    0.760347001746502 
19 1     0.49796632362677    0.309122266015493    0.179709594138103   -0.337369590612009   0.0148249338837679   -0.335214232103133 
20 1    0.501232993148619    0.471870462277934 -0.00510991412994599   0.0739345308507925    0.442821478231908   -0.131200525313387 
21 1    0.343115346075933    0.653379218839291  -0.0167377990694035    0.142578268258421    0.401072102127851   -0.402316020925362 
22 1    0.335610626720722    0.845784987588445    0.134317806843114   -0.322431781720183    0.029861254190475    0.730434899011184 
23 1    0.492780942152308    0.673928118993217     0.14427595410416   -0.101184278745107   -0.685623866441532  -0.0705756972201173 
24 1    0.489107367430734     0.84482679937139 -0.00282792671538346     0.48633212871941   -0.246130771065657   -0.764357631462779 
25 1    0.675869992853563   0.0398976691967619  -0.0100797637621781    0.458271087169681    -1.48838432658159    0.104824466171419 
26 1    0.671412755449865    0.169889628441524    0.181060906976086    0.226002573234658   -0.203028743157091  -0.0504492692786965 
27 1    0.819884598549265   0.0037671971653026    0.183444933670557    0.443497570611359    0.112811055045883   -0.459823185068721 
28 1    0.842072103671171    0.168334333403891 -0.000267042313623733    0.282804595000023     0.12204658852453    0.394913796882846 
29 1     0.69061690808644    0.338243774079729 -0.00398371562863531   0.0618912228698344   -0.583122676079039    -0.34787121970872 
30 1     0.65601575657206    0.487567967665314    0.137943579546345   0.0329560263796488    0.360232500588264      1.1710202469758 
31 1    0.827542972135575    0.354059672747667    0.191952045630501    0.417959356985109    -0.31081238080296   -0.675624082972115 
32 1    0.850779439592316    0.503041340209961   0.0115990988139174    -1.02265748041829    0.156901683588643    0.250958899374245 
33 1     0.68959121785565    0.657394180054439  0.00873662604669789   -0.615280090362817    0.249450598840424   0.0102649285393308 
34 1    0.644390846701299     0.82217358724165    0.168095938463921    0.891820488281791    0.265598405273372   -0.326458980988339 
35 1    0.821825094860628    0.650665290266147    0.186324104252662   -0.152700076915973    0.104967443948828     -0.8777759448521 
36 1    0.819615776452451    0.830125740251106  0.00338740787867664   -0.721014696027686    0.445454961490587    0.316985098561476 
37 1  0.00527551238212709 -0.000179451019278076    0.334926079254842    -1.25299952229894   -0.300563403472903    -0.60174646059431 
38 1  -0.0110693401992421    0.169015471816124    0.536708751549213    0.661953877284969   -0.302040908853154   -0.620132801640428 
39 1    0.146355466557452  -0.0167236833117386    0.479548098121995    0.850564164575798    0.352553139255346     1.15312698739114 
40 1    0.160178283101232    0.144182654722272    0.326373546188734    0.366578497305574    0.672236697239303    0.585810064350711 
41 1 -0.00891177556144385    0.344412886756913    0.360382705933262    0.358815106817009    0.301714039377129   -0.176159107848036 
42 1 0.000420196331560874    0.506875989804257    0.512637178604564   -0.105400878148784    0.360545725881145   -0.268568463823461 
43 1     0.14982154956499    0.348224379095086    0.522469613960197    0.447868586003519   -0.482032880528905   -0.543574901823098 
44 1    0.177741024928537    0.514668625908143    0.327212490104785  -0.0634624488785268   -0.922989458940702   -0.405673785293782 
45 1   0.0192969496397382    0.693967907870501    0.285947361521266  0.00784377868612257    0.240805414659638     1.28594270950657 
46 1   0.0035831113199265    0.816067146795717    0.487650147715613   0.0166038298695349    0.592094855459996    0.137113186709176 
47 1    0.148312814891483    0.656492280325097    0.469791270235987    0.596494419208264    0.640405114795093    0.824442668936542 
48 1    0.200410372694819    0.847601895302319    0.322709615913254  -0.0498960020472033   -0.736472819816582   -0.141436329827542 
49 1    0.355789395215652   0.0102906479609146    0.296232539967718   -0.462750378955085   -0.119846433990687   0.0159386077343286 
50 1    0.337655459603866    0.128810256392512    0.476388848863849   -0.899852172355658    -0.37298664835258    0.541589614625247 
51 1    0.531366004737947 -0.00681154981617738    0.487596761454029   -0.708894880887874   -0.627007792448331   0.0736163496043908 
52 1     0.50471516378002    0.157876938601248    0.352085184539192    0.674302998965518     0.49157461531764   -0.561554249656322 
53 1    0.299687991919768    0.308034995459479    0.360247491444852    0.338549827923554    0.728767628124572   -0.187160395976787 
54 1    0.326941802143097    0.478664453905935     0.53282505321431    0.177437472922652   -0.206855273262168   -0.494242661063698 
55 1    0.511323834246355    0.356651215610327    0.494860179077818   0.0966433270248856    -0.06959177427019   0.0923976187062961 
56 1    0.485852086127693    0.482369257491882    0.297353731060412   -0.134036766604718    0.272209657042131    0.390550073292021 
57 1    0.345933794780422    0.654942318768917    0.323984944098584   -0.244560804521678    0.156361626848422    0.123775364318595 
58 1    0.364378483114933    0.847058951640406    0.482620996940796   -0.636488111097483   0.0903005084133415    0.354317191082366 
59 1    0.492298175385145     0.65249674538245    0.497022808992142  -0.0545685379869924  -0.0413244154788996   -0.970423887546313 
60 1    0.480885479442009    0.825716977600791    0.309543865157025    0.458399001815163    0.159948937199375    0.111734380761431 
61 1    0.685527851762004  -0.0375269672574632    0.342653963018392   -0.381561975492016    0.337277960328028  -0.0649819436185486 
62 1    0.681340133148979    0.145439853830112    0.501901990882061   -0.502135728147219    0.825429223827839    -0.15052487831091 
63 1    0.839811374813053  0.00618571510926813    0.505886467238611    0.585242313936069   -0.371113414756142   -0.922744010466511 
64 1    0.843253532363178    0.186936202513493    0.352740792822829   -0.262320581416328    -0.47070083428787  -0.0520090571199168 
65 1    0.665171730522843    0.329293452888351    0.329938256108449   -0.277071505652192    0.108149385937554    0.706540952894751 
66 1    0.681410530363905    0.520320257768049    0.514210200376851  -0.0332024816870454   -0.626998017523398   -0.323346784581855 
67 1    0.862844496158459    0.337240259279383    0.542340149161419   -0.525367855884896    0.149244939227773   -0.238832587697274 
68 1    0.813341880582129    0.508460708366783    0.342351613076858    0.492582996662311   -0.343312126028135     0.43391560598024 
69 1    0.636251910517217    0.644953552353513    0.318632852608062  -0.0141555498819931  -0.0323837133744333  -0.0929831686981843 
70 1    0.656497207544589    0.785855587669516    0.485269756214734   -0.177153138493097    0.859744855427051    0.140192335932203 
71 1    0.842344460253003    0.679715055559313    0.489336340813793    0.245234358254848    -1.48765770314809     1.11708501573422 
72 1    0.827992441551032    0.799393827394056    0.331437147797374   0.0516199017925998     1.22679118645762   -0.598251896728021 
73 1  -0.0125971852987163  -0.0264613945396945    0.688457990361599      0.7708514373326  -0.0123759766644133   -0.962788219858011 
74 1   0.0052855919425383    0.141147453366671    0.834631469973147    0.386248752098066    0.489635489503511   -0.553798641574334 
75 1    0.173312921442516  -0.0414412879537167    0.807342264503632   -0.174100868156712     1.05510314414249    0.421142575926095 
76 1    0.172083335581988     0.14135397500354    0.638558457976501    0.233869807455456   -0.121191520806659     0.38982562998182 
77 1    0.036682562300939    0.342376090271614    0.695345907306091   -0.668458527758452   -0.594149700053325    0.123557965388061 
78 1 -0.00125723149477608    0.502309335032464    0.861944987627453    0.352856236829076   0.0956531708604815    -0.73303865717155 
79 1    0.163909010220891    0.329069897733689    0.864949308444125   -0.583147184441453    0.322495817233036  -0.0671470510329385 
80 1    0.152575987096839    0.517820947284349    0.691271441259005  -0.0775748919699123     0.53228484063817   -0.319119321417191 
81 1  -0.0110919979937307     0.69542847845355    0.693312967465772    0.509884329882844   -0.189956947249923   -0.617517317170886 
82 1    -0.02503901144064     0.82645970937665    0.861142205410488    0.967830394731986    0.263734710016517  -0.0173077739786867 
83 1    0.153981202208342    0.685232066722847    0.874849985343531   -0.192463034502307   -0.929514360185976   -0.852134212130666 
84 1    0.189357672646565    0.832394789989849    0.644712009856676   -0.414434018405716    -0.39094236362454   -0.886886235188839 
85 1    0.375808985134654 -0.00919468828533354    0.668270025165498   -0.532304311678423   -0.403027087314536   -0.133456822685013 
86 1    0.297932214506204    0.150023865303297    0.831296404793989   0.0838584300873182   -0.175172200633817  -0.0997093626973398 
87 1    0.481148716662346   0.0172366357229521    0.859629385599646    0.397994307478106    0.022573917021331   -0.530933268077819 
88 1    0.480185012342645    0.170182705843217    0.627838309441813    0.799720224564207    0.689744333615481    0.535190449385415 
89 1    0.309685524259521    0.314218143413086    0.688632560106498   -0.125607765459472    0.119148867740559   -0.241634111277281 
90 1     0.33368055569656    0.522829827592318    0.798310271907667    -0.23995104222834    0.337744758141605    0.491333026685155 
91 1    0.490787036809593    0.388065941093942    0.786351564764573    0.739183785470687    -2.04373682120055      1.2831602953937 
92 1    0.520780717682896    0.532950573950188     0.66468191395677   -0.276188736671987    0.288949909733669   -0.874082552415263 
93 1    0.331539397187726    0.665957996171073    0.630512707459161   -0.580038107389234    0.370270247148667    0.254268967821873 
94 1    0.330721759910489    0.809348584475856    0.814876672213813     0.57927820058475   -0.214578476559127    0.173175175108695 
95 1    0.532414511715274    0.647925605150249    0.849784922926915   -0.221314887340234    0.391483513503695    0.123473546767562 
96 1    0.505563793389797    0.805177581133648    0.667098734485762  -0.0496308633256307   -0.261331047090775  0.00168675338367749 
97 1    0.645966163954654   -0.029766437525609    0.665146468197236    0.071911619215444      1.0755838390841   0.0261548603111473 
98 1    0.653177806628833    0.184908207775607    0.826000637795573   -0.237367808480862  -0.0846688873620437   -0.164603575404713 
99 1    0.841988468335103  0.00342742610962432    0.832008917200483    -1.36187342631556    -0.28428467491445    0.665208066023452 
100 1    0.823723120945601    0.142466800414127    0.667303864712721   -0.349367777503587    0.556120980411586    0.876975833373165 
101 1    0.691177653786895    0.335797739828536      0.6725094257921   -0.363050379327881    0.162893626510579   -0.184983227436887 
102 1    0.710048682463594    0.502445980983566    0.835953018284499   -0.430097587225651   -0.531174595403207   0.0507489570967962 
103 1    0.868562014901386    0.313561263607767    0.827154688066003    -0.84547041042396    0.254370460292544   -0.161207329513973 
104 1    0.862729346369292    0.511904570554634    0.676152913405531   -0.303093572093008  -0.0120357172805472    0.344316220599465 
105 1    0.681429721306472    0.661573827955067    0.674170550644476    0.640643152347275    0.800231952339677    0.152219211036942 
106 1    0.656441885585195    0.853753752084458    0.838519759189808    0.124786888975943   -0.343622815744328    0.485902888275986 
107 1    0.825467549270797    0.683425491139701     0.83996996188398   -0.110912617456634   -0.354851009792465   -0.213811853243192 
108 1    0.816320358044891    0.846072318478946    0.635841990557765    0.281170212824391   -0.842066561597552    0.693509559574493 
ITEM: TIMESTEP
200
ITEM: NUMBER OF ATOMS
108
ITEM: BOX BOUNDS pp pp pp
-2.3654044522150652e-01 1.2386540445221506e+01
-2.3654044522150652e-01 1.2386540445221495e+01
-2.3654044522150652e-01 1.2386540445221495e+01
ITEM: ATOMS id type xsu ysu zsu fx fy fz 
1 1 -0.00617544210933829   0.0129510074995096   -0.017494007577568   -0.227581259135788   -0.253672331294587    0.780814603366788 
2 1  -0.0167223860632362    0.157839842072804    0.163577736911748    -0.66494597887805   -0.371016548449008   0.0824546923834052 
3 1     0.15686616092421   0.0211328740521139    0.156825609895805    0.226607260836487   -0.427188267911247  -0.0982720316585394 
4 1    0.153212779331284    0.184455258696516  0.00934634755515162  -0.0949382641257877   -0.391744226290945   -0.628198099708533 