LAMMPS (17 Nov 2016)
units metal
dimension 3
boundary p p p
atom_style atomic
read_data structure.inp
  orthogonal box = (0 0 0) to (12.15 12.15 12.15)
  1 by 1 by 1 MPI processor grid
  reading atoms ...
  108 atoms
include potential.inp
pair_style eam/alloy
pair_coeff * * Al.lammps.eam Al
fix 1 all npt temp 1000 1000 1.0 iso 0.0 0.0 1.0
variable  dumptime equal 100
dump 1 all custom ${dumptime} dump.out id type xsu ysu zsu fx fy fz
dump 1 all custom 100 dump.out id type xsu ysu zsu fx fy fz
dump_modify 1 sort id format line "%d %d %20.15g %20.15g %20.15g %20.15g %20.15g %20.15g"
thermo_style custom step temp pe etotal pxx pyy pzz vol
thermo_modify format  float %20.15g
thermo 100
velocity all create 2000 85682 dist gaussian
run 10000
Neighbor list info ...
  1 neighbor list requests
  update every 1 steps, delay 10 steps, check yes
  max neighbors/atom: 2000, page size: 100000
  master list distance cutoff = 8.5
  ghost atom cutoff = 8.5
  binsize = 4.25 -> bins = 3 3 3
Memory usage per processor = 3.93753 Mbytes
Step Temp PotEng TotEng Pxx Pyy Pzz Volume 
       0                 2000    -362.880858320022    -335.219187290022    -4051.75069362376     1117.84252384124    -3251.42366778061          1793.613375 
     100     851.113006433077    -348.432846087599    -336.661242090946     3984.46669951687     5208.81626881319     8079.32374402983     1883.94105000506 
     200     703.176068546192    -345.313609779367     -335.58809723722    -31808.8211918082    -30729.5313932973    -25624.8183883392     2011.38911589566 
     300     767.583719842203    -347.202603743055    -336.586279569926    -10691.5448277288    -12938.8888493049    -8685.76753152724     1934.05356390805 
     400     960.391052120308     -349.27849865339    -335.995487981437     25635.6775242973     24923.4006518971     18472.2343772074     1827.63797775614 
     500     925.717231340397    -348.970401488094    -336.166958728024     9843.65397131155     7247.42999887325     13932.6791173309     1863.27011446138 
     600     848.184253214883    -347.655106224284    -335.924009331656    -15003.8987803304    -18432.7675902968    -14300.2244152507     1947.87715807089 
     700     790.864094789842    -346.717813083193    -335.779501873435    -5516.35013671924    -11624.2071403378    -12785.4699040272     1935.71603476773 
     800     970.145305097766    -348.968782949308    -335.550862808851     9635.83550850156     11620.3929647961      6629.7524429546     1864.56293162011 
     900     1032.76100709892    -349.554126520944    -335.270178905453     10322.6840108142     10390.9767766828     9755.97183791454     1866.75986605294 
    1000     807.123208908602    -346.255787878469    -335.092599535715     427.013831722504    -12244.1567207899    -9415.40570141443     1937.05540194651 
    1100      720.94067552489    -344.680058207307     -334.70884630805    -3749.64967472353    -8340.83586462625    -10278.9570140104     1955.56158193666 
    1200     925.007280266819    -347.393501221713    -334.599877678165     1370.09686493278     2418.99963217652     10028.1885581696     1902.85176419427 
    1300     930.869738885329    -347.119034463875    -334.244328219461     8251.05385722234      11258.875886342     8191.16040769655     1883.02922157356 
    1400     905.834127880819    -346.557560863342    -334.029118036749     503.727099300433    -1961.53113994154    -3557.66094110189     1914.80319666786 
    1500     898.720664689715    -346.268659831036    -333.838602143781     2656.78945431406     -1830.9615640319    -7421.10620994273     1930.57183796855 
    1600     948.265470741973    -346.794467164174    -333.679163413788     -2153.9782717002     1285.97635598748    -8430.02949338388     1927.26964915581 
    1700      897.98500999562    -345.943257187668    -333.523374219483     8259.46321584801     1504.10414767475     3059.88074265852     1911.42669131383 
    1800     923.167558515845    -346.156290303008    -333.388111648391     4349.32811426276     6320.71015572714    -2417.01925434584     1913.86771932555 
    1900     897.232887059031    -345.652464379764    -333.242983900202    -1051.73822290466     369.297800407578     4043.35028008625     1925.64639009745 
    2000     945.440111390329    -346.188366340006    -333.112139670084    -955.264824495127    -1716.09905359455     300.595074017923     1930.29636172217 
    2100     1067.35874098717    -347.740350519272    -332.977887337181    -10094.4149394203    -5980.23007518228    -13136.5851046261     1932.69299487132 
    2200      1044.4124073328    -347.341160751738    -332.896064536093     791.985904374703     691.696037215236    -1813.74831203495     1907.10020107133 
    2300     986.111815512862     -346.36702106883    -332.728270749073     14339.0524435995     4310.19896942711     9874.43013295127     1891.65526886514 
    2400     982.206390816117    -346.268825903768    -332.684090870608     -7907.8079490471    -3308.08449983091    -4182.83506049117     1935.29902691683 
    2500     890.811323337838    -344.777705439488    -332.457040551503    -8439.72059592206     -7896.7069845442    -5435.21035717023      1957.0151960342 
    2600     935.256587076856    -345.339317236173    -332.403937215992     1228.37427456509     2858.30721034959    -497.687934247784     1921.98187172981 
    2700     1007.00901908099    -346.084004984015    -332.156228878984     4763.51853434472     12085.4895480372     12532.7259156272     1888.44764925364 
    2800     1008.19257769542    -346.072614043415    -332.128468333866     -5670.6825941484     3234.86666813553     3458.56620905321      1916.0929617054 
    2900     940.650697653667    -344.911653061269    -331.901667984951    -8446.94470857806    -2544.84698845112    -9411.81185016233     1958.41060542943 
    3000     1027.29174968764    -346.026062951549    -331.817759735703    -10876.8239094711     -7977.2447345593    -5933.23797765719     1948.15475134336 
    3100     989.182772268029    -345.310124828087    -331.628900610576     7956.13171017441      16450.715309327     8055.37878317193     1898.87594034196 
    3200     981.477298030626    -345.078021347717    -331.503370276949     5470.03488162937     13621.2217093594     8443.67820621171     1908.56803523053 
    3300     922.123068278565    -344.160924894173    -331.407192412225    -8675.42877161429    -3675.86833632364    -7190.39034180232     1962.75444843732 
    3400      890.73614718986     -343.54559521878    -331.225970079732    -5827.86875987953    -7953.57879235299     -4864.6370644111     1966.66268891062 
    3500     950.631677252858    -344.202761284942    -331.054730921509     6159.90002159753     20401.2556274784     8247.22842031904     1921.91420457195 
    3600      928.24241527669    -343.845776811046    -331.007408647308     6626.07828981137     5536.53841478489     8268.21319708083     1939.20202465721 
    3700     931.610257438929    -343.612900894126    -330.727952659401    -7445.63606806704    -13088.3995397083    -12064.3219270301     1989.35213120791 
    3800     983.937325263384    -344.280579105608    -330.671903802821    -1919.10133311345     358.196377106966    -7695.61014308805     1962.11194307763 
    3900     979.067072870917    -343.915275384286    -330.373959741256     12789.1018070922     8056.61387474927     6247.43686265197     1929.84709548556 
    4000      949.68843752361    -343.384976353756     -330.24999178387     497.571770395986    -1828.15581945473     1654.80806923339     1956.29967238684 
    4100     910.834242442755    -342.595826206985    -329.998227618329    -7952.54621752817    -1500.45911798169    -10790.3041538485     1981.71818304634 
    4200     987.591887651574    -343.589436471998    -329.930215517941     2178.32753980446    -5292.44741117159    -1762.75470703113     1951.04245329778 
    4300     1133.40523240292    -345.312092416316    -329.636151075111     16753.5985542474     10253.3915730363      11736.552542997     1908.10114514261 
    4400     992.454543388155     -343.39690386364    -329.670428317924     6209.12168738061     5877.85301659536     1608.17512677469     1942.01272237182 
    4500     998.446753536366     -343.19290135121    -329.383548532563    -9048.03179118444    -14118.9991751614    -10773.9956143573     1984.01187370211 
    4600     925.444105248738    -342.089738115029    -329.290072917007     -172.77949460142     4355.87817464767     6742.70971168241      1960.2581284314 
    4700     1108.39958563507    -344.489348625637    -329.159256271825     3255.71560460633    -2452.11246772604     -3312.1542549513     1946.39438541195 
    4800     1092.10446957203    -344.169041290778    -329.064324006931    -9054.53816834325     6132.84790611161     9366.60573173058     1945.95040180042 
    4900     1004.19250374646    -342.888860192444    -329.000038847731    -26.4249954386786     9620.73510441775    -1201.65454192475     1963.89869409885 
    5000       1000.165566931    -342.743422548862    -328.910297104873    -10193.5376478742    -6247.33648636585    -1749.16195591172     1978.13917882471 
    5100     1117.19590946781    -344.347758742151    -328.896005880271     1524.91134391469    -922.190328224836    -1194.07300007143     1953.23703160535 
    5200     1117.21217212376    -344.278234923186    -328.826257135187     3600.18387400529     14017.6150087962     3582.50454288998     1925.35578636723 
    5300     1139.44240544637    -344.648935835815     -328.88949534727    -513.012586842978    -6992.66952227529     6715.48824080797     1947.16297535842 
    5400      1119.5308639295    -344.325069583347    -328.841022350372    -8078.85634453479    -9678.26537082979    -9442.05990658719     1974.35581428812 
    5500     1064.63019492258    -343.616031368425    -328.891306258149    -3720.81940847919     1070.75429154657    -295.608124892183      1958.4013344917 
    5600     1078.89934148294    -343.840493238511    -328.918413909219    -3293.50719512182     5194.54090989309     13150.3516331623     1944.21006694968 
    5700     1166.21936196614     -345.12196082689    -328.992172657128    -6821.96065320399    -11437.1170170586     686.198430467938     1962.94704760808 
    5800     1093.26606907899     -344.19987737944    -329.079094203878    -3197.02899912629    -110.403361301062     -9224.2547243707     1961.38368890994 
    5900     1043.83174685768    -343.589584449171    -329.152519253047     1514.70706555952     2138.89415598449     949.729702680223      1945.5610703277 
    6000     1165.68674112685    -345.392395369829    -329.269973791287    -12609.4114355143    -6748.00073715513     2422.37697134526     1945.17170703606 
    6100     1002.59284259499    -343.296921439071    -329.430224744623     6941.24898788254     7456.40608905594     4081.48168806222      1935.5770541298 
    6200     1061.78633145236    -344.307512165823     -329.62212006343    -7661.67626489379    -1985.63837300549    -488.379209792855      1944.9315384229 
    6300     973.242718070109    -343.319651765932    -329.858891816133     6261.78363377771     8461.18473575582     332.390078591062     1935.64027307733 
    6400     1057.59539040744    -344.772039423855    -330.144611537708     9019.25090497418     1901.04884831871      795.26704683091     1933.29662298866 
    6500     1021.40946397043    -344.592434004906    -330.465487715267    -5659.96804036233    -6665.53473660605    -5491.97284818169     1958.22926237227 
    6600     974.438284353129    -344.246448814546    -330.769153184139    -6526.40165801121    -893.028885916944    -5429.38977549225     1965.08407476827 
    6700     937.541627142082    -344.096615105823    -331.129631072355    -5286.97485583271     1240.44559131393      6650.0695813007     1945.81621539515 
    6800      942.07155767769     -344.47398655454     -331.44434979694     12147.8084090186     135.709348071397       3552.254032757     1929.46407743859 
    6900     1004.37709620857    -345.687590070845    -331.796215658151     7057.86162752445     2317.59840052778    -10114.1655312608     1936.51754292358 
    7000      878.45264393981    -344.239176840536    -332.089442814488     5600.71832733844    -5862.88008264606     3173.47668779977     1947.55309104578 
    7100     931.540071251198     -345.24212532826    -332.358147827153    -5440.12934988621    -10812.5104738588     3709.29878040386     1947.27954358273 
    7200     892.414706753178     -344.89377470676     -332.55093368649     9351.27915192168     6202.83954951347     5582.07466332307      1927.9996448703 
    7300     951.046952499218    -345.862662520309    -332.708888553251    -3447.97626943658    -6151.60796324563    -1922.96268409458     1939.48390249576 
    7400     950.982694262233    -345.973081629679    -332.820196407727    -5610.52104297575    -3229.15864307138    -7942.09896808362     1940.43664795686 
    7500      1006.2488748087    -346.844711219856    -332.927448545223     1443.36743581278     6740.34622317437      8943.2909651651     1907.46190460166 
    7600     1021.47311970998    -347.080517929855    -332.952691228152     1897.71444653026     4808.86447931821     252.985116678947     1904.50397916581 
    7700     948.287758592657    -346.112284121661    -332.996672111678    -8510.30071340453     380.861159251225    -6490.00518453672     1942.03866020902 
    7800     889.695864154259    -345.258533778237    -332.953296622743    -4829.44698285406    -10728.0888971048     -5090.6392324957     1953.79929123292 
    7900     934.150252450569    -345.885632094788    -332.965553606848     1238.70783805918    -1056.78873033209     5830.52418666823     1923.15000508404 
    8000     1018.75222298602    -346.975722386613    -332.885527959953     7847.12287369848     11116.3180181127     2685.67622616394     1900.55212801702 
    8100     941.237460601548    -345.967316153344    -332.949215655208     2572.37497717271      5581.1727825932     7816.62727980778     1919.09031671547 
    8200     942.521372905694    -345.851237778909    -332.815379700878    -17417.9898837605    -17105.2658955714    -14364.3768381217     1971.76638254949 
    8300     875.720908401375    -345.035402224438    -332.923450383293     2467.56704123917     968.742148140434    -9553.40941696964     1940.30293770131 
    8400     1025.59722827623    -346.839140822663    -332.654274253735     14175.0589769768      13512.101155103     7446.06164149388     1884.86900242393 
    8500     947.647391849366    -345.801145839365    -332.694390636478      12053.454908756     10150.1696955058     6664.65301054576     1901.19549235653 
    8600     884.125386604626    -344.787696772929    -332.559503976165    -16298.1199383336    -14364.3349017477    -9565.10181059508     1967.30552066757 
    8700     802.488961120428    -343.632196170379    -332.533103346519    -6130.75726668767     -1226.8331464374    -3319.91390217251     1953.40904793652 
    8800     1007.84235044922    -346.282564917334    -332.343263143219     5332.96151653994     13150.7948828754     12805.9322940864     1898.94824283585 
    8900     958.184308070945    -345.536046460317    -332.283556902334     7063.78734676663     3563.25730070934     8385.61840601177     1909.81288748097 
    9000     889.841118760236    -344.425956632742    -332.118710484685     -5987.5149811946    -7145.93145002874    -9898.68751129519     1962.55500768454 
    9100     890.268057887365    -344.287693344625    -331.974542271727    -9350.07628162199     432.544608434835    -2979.14715818786     1965.32655506604 
    9200     1043.07286668152    -346.239902402372     -331.81333315314     -2673.9033360383     1735.43766663735    -7152.20975675426     1939.88815167152 
    9300      1106.2119424791     -346.92063721054    -331.620801789382    -4073.14077502748     1353.30040423468     5249.50757312198     1920.56437651513 
    9400     988.180206948798    -345.141257588172    -331.473899686685    -192.340366007788     5146.84917037231     6529.71694471092     1927.26302910591 
    9500     966.656656685293    -344.670272769099    -331.300603551005    -5200.07451386098    -1194.04404452579    -2099.54916327047      1955.6286778101 
    9600     989.352556393996    -344.803886465606    -331.120313991776    -4951.31822795703    -5825.31498671911    -13583.0218821215     1963.05367663758 
    9700     1021.88550683918    -345.137898877167    -331.004368516912     4636.43655348449    -3274.07490152101     3186.77974747528     1924.81823795489 
    9800     1077.67666391509     -345.65879073487    -330.753622057906     8649.52507117018     9536.96058121196     6928.39070715526     1902.65672878854 
    9900     1065.00277596835    -345.449437246296    -330.719559028859     1114.73497770078     81.2990045438765    -3965.61121010303     1938.49056318928 
   10000     920.936075454166    -343.192570091459    -330.455254712023    -10613.7068575058       -5529.15809045    -12082.5629995431     1980.76908050295 
Loop time of 2.67216 on 1 procs for 10000 steps with 108 atoms

Performance: 323.333 ns/day, 0.074 hours/ns, 3742.285 timesteps/s
100.0% CPU use with 1 MPI tasks x no OpenMP threads

MPI task timing breakdown:
Section |  min time  |  avg time  |  max time  |%varavg| %total
---------------------------------------------------------------
Pair    | 2.4461     | 2.4461     | 2.4461     |   0.0 | 91.54
Neigh   | 0.04547    | 0.04547    | 0.04547    |   0.0 |  1.70
Comm    | 0.066565   | 0.066565   | 0.066565   |   0.0 |  2.49
Output  | 0.034004   | 0.034004   | 0.034004   |   0.0 |  1.27
Modify  | 0.062804   | 0.062804   | 0.062804   |   0.0 |  2.35
Other   |            | 0.01726    |            |       |  0.65

Nlocal:    108 ave 108 max 108 min
Histogram: 1 0 0 0 0 0 0 0 0 0
Nghost:    1389 ave 1389 max 1389 min
Histogram: 1 0 0 0 0 0 0 0 0 0
Neighs:    7656 ave 7656 max 7656 min
Histogram: 1 0 0 0 0 0 0 0 0 0

Total # of neighbors = 7656
Ave neighs/atom = 70.8889
Neighbor list builds = 156
Dangerous builds = 0
Total wall time: 0:00:02
