ITEM: TIMESTEP
0
ITEM: NUMBER OF ATOMS
108
ITEM: BOX BOUNDS pp pp pp
0.0000000000000000e+00 1.2150000000000000e+01
0.0000000000000000e+00 1.2149999999999990e+01
0.0000000000000000e+00 1.2149999999999990e+01
ITEM: ATOMS id type xsu ysu zsu fx fy fz 
1 1                    0                    0                    0 -5.55111512312578e-16 2.32730501537048e-14 2.34534613952064e-14 
2 1                    0    0.166666666666629    0.166666666666629 -1.38777878078145e-16 9.71445146547012e-17 2.63677968348475e-16 
3 1    0.166666666666629                    0    0.166666666666629  1.0547118733939e-15 2.37310171513627e-14  2.4980018054066e-16 
4 1    0.166666666666629    0.166666666666629                    0 1.13797860024079e-15 1.21430643318376e-15 2.44734787990808e-14 
5 1                    0    0.333333333333371                    0 -3.19189119579733e-16 -7.63278329429795e-17 2.19685380997703e-14 
6 1                    0                  0.5    0.166666666666629 -6.38378239159465e-16 3.13192126313172e-16 5.27355936696949e-16 
7 1    0.166666666666629    0.333333333333371    0.166666666666629 1.94289029309402e-16 -9.08995101411847e-16 3.59087759527199e-16 
8 1    0.166666666666629                  0.5                    0 1.49880108324396e-15 1.78781550111071e-15 2.45278481498992e-14 
9 1                    0    0.666666666666629                    0 -5.27355936696949e-16 9.29811783123569e-16 2.32938668354166e-14 
10 1                    0    0.833333333333371    0.166666666666629 -5.96744875736022e-15 -2.47198095326695e-14 1.11022302462516e-15 
11 1    0.166666666666629    0.666666666666629    0.166666666666629 2.05391259555654e-15 1.26634813746307e-16 -4.66640615037761e-16 
12 1    0.166666666666629    0.833333333333371                    0 2.88657986402541e-15 -2.39183672867682e-14 2.31065167000111e-14 
13 1    0.333333333333371                    0                    0 -1.00855196590033e-15 2.29551010903599e-14 2.30938688040427e-14 
14 1    0.333333333333371    0.166666666666629    0.166666666666629 -1.46917525888079e-15 3.33371839248559e-16 2.90003752349138e-16 
15 1                  0.5                    0    0.166666666666629 2.07305554016449e-15 2.38018595989393e-14 1.52655665885959e-16 
16 1                  0.5    0.166666666666629                    0 1.95291916318951e-15 1.02695629777827e-15 2.45512838574838e-14 
17 1    0.333333333333371    0.333333333333371                    0 -3.11816544806831e-16 -5.53901949263899e-16 2.32203071061452e-14 
18 1    0.333333333333371                  0.5    0.166666666666629 -3.60307486971245e-16 1.07339308014863e-15 -4.15988044791954e-16 
19 1                  0.5    0.333333333333371    0.166666666666629 1.41214510655716e-15 -1.12757025938492e-16 3.33348122326035e-16 
20 1                  0.5                  0.5                    0 2.86648146625296e-15 1.02176906800928e-15 2.46263614697966e-14 
21 1    0.333333333333371    0.666666666666629                    0 -2.53922859301536e-15 1.48466579742018e-15 2.38161947845386e-14 
22 1    0.333333333333371    0.833333333333371    0.166666666666629 -2.80542733141487e-15 -2.47379631427951e-14 -4.12911621127526e-17 
23 1                  0.5    0.666666666666629    0.166666666666629 -3.6120664305677e-16 -2.60208521396521e-16 1.97758476261356e-16 
24 1                  0.5    0.833333333333371                    0 -5.8261636617582e-16 -2.42583730880597e-14 2.46768886791662e-14 
25 1    0.666666666666629                    0                    0 1.81799020282369e-15 2.40953090813179e-14 2.42913328341032e-14 
26 1    0.666666666666629    0.166666666666629    0.166666666666629 1.04083408558608e-16 4.04190569902596e-16  4.0766001685455e-16 
27 1    0.833333333333371                    0    0.166666666666629 2.08166817117217e-16 2.24299745443801e-14 2.22044604925031e-16 
28 1    0.833333333333371    0.166666666666629                    0 1.94289029309402e-16 1.23512311489549e-15  2.3189783426858e-14 
29 1    0.666666666666629    0.333333333333371                    0 1.08246744900953e-15 1.22921421305544e-16 2.34395836073986e-14 
30 1    0.666666666666629                  0.5    0.166666666666629 1.66533453693773e-16                    0 9.71445146547012e-17 
31 1    0.833333333333371    0.333333333333371    0.166666666666629 -1.38777878078145e-16 -5.70425867998936e-17 3.88578058618805e-16 
32 1    0.833333333333371                  0.5                    0 2.77555756156289e-16 1.26287869051112e-15 2.33493779866478e-14 
33 1    0.666666666666629    0.666666666666629                    0 1.60982338570648e-15 4.77048955893622e-16 2.45012343746964e-14 
34 1    0.666666666666629    0.833333333333371    0.166666666666629 9.97465998686664e-16 -2.32730501537048e-14 9.71445146547012e-17 
35 1    0.833333333333371    0.666666666666629    0.166666666666629 2.66453525910038e-15 1.38777878078145e-15 1.42941214420489e-15 
36 1    0.833333333333371    0.833333333333371                    0 1.66533453693773e-15 -2.39530617562878e-14 2.40224506953268e-14 
37 1                    0                    0    0.333333333333371 -2.77555756156289e-16 2.30891694652513e-14 -8.88178419700125e-16 
38 1                    0    0.166666666666629                  0.5 -5.68989300120393e-16 1.02695629777827e-15 9.47159017883337e-16 
39 1    0.166666666666629                    0                  0.5 1.41553435639707e-15 2.41959230429245e-14 1.55812049460607e-15 
40 1    0.166666666666629    0.166666666666629    0.333333333333371 8.32667268468867e-17 3.90312782094782e-16 -6.24500451351651e-16 
41 1                    0    0.333333333333371    0.333333333333371 -9.71445146547012e-17 6.93889390390723e-17 1.17961196366423e-16 
42 1                    0                  0.5                  0.5 -4.96824803519758e-15 1.97201467395242e-15 8.92854041568969e-16 
43 1    0.166666666666629    0.333333333333371                  0.5 -1.72084568816899e-15 -2.53269627492614e-16 1.02348685082632e-15 
44 1    0.166666666666629                  0.5    0.333333333333371 -1.84574577843932e-15 7.70252239692037e-16 -2.0122792321331e-16 
45 1                    0    0.666666666666629    0.333333333333371 -5.60662627435704e-15 6.24500451351651e-17 2.63677968348475e-16 
46 1                    0    0.833333333333371                  0.5 -5.32907051820075e-15 -2.64267774330307e-14 1.73472347597681e-15 
47 1    0.166666666666629    0.666666666666629                  0.5 5.55111512312578e-17 5.06539254985228e-16 7.52869988573934e-16 
48 1    0.166666666666629    0.833333333333371    0.333333333333371 -1.20736753927986e-15 -2.4605317783255e-14 -9.35015953551499e-16 
49 1    0.333333333333371                    0    0.333333333333371 -3.76163943743846e-16  2.4120791220503e-14 -1.22018484183771e-15 
50 1    0.333333333333371    0.166666666666629                  0.5 -3.75540527494667e-16 -1.10700429942559e-16 1.48073217641313e-15 
51 1                  0.5                    0                  0.5 2.75899637337818e-15  2.4495620240322e-14   7.950827225333e-16 
52 1                  0.5    0.166666666666629    0.333333333333371 1.43258134858906e-15  2.4980018054066e-16 -3.46944695195361e-16 
53 1    0.333333333333371    0.333333333333371    0.333333333333371 -9.20311461587164e-16 -1.06593336587912e-15 -9.09713385351119e-16 
54 1    0.333333333333371                  0.5                  0.5 7.46581615973518e-16 1.84680401059794e-15 6.91422830448318e-16 
55 1                  0.5    0.333333333333371                  0.5 2.33746534497939e-15 -1.21159592775255e-17 6.28417131699754e-16 
56 1                  0.5                  0.5    0.333333333333371 2.38239874876534e-15 4.31658154316159e-16 1.36907629330607e-16 
57 1    0.333333333333371    0.666666666666629    0.333333333333371 -1.19655262260931e-15  6.7776527120679e-16 -2.93649382154121e-16 
58 1    0.333333333333371    0.833333333333371                  0.5 -1.38821246165044e-15 -2.52308109572209e-14 1.80403448798473e-15 
59 1                  0.5    0.666666666666629                  0.5 4.76981193257842e-16 -1.52655665885959e-16 -6.29955343531968e-17 
60 1                  0.5    0.833333333333371    0.333333333333371 -4.78770126842443e-16 -2.48566629518915e-14 -9.68070567285151e-16 
61 1    0.666666666666629                    0    0.333333333333371 1.00613961606655e-15 2.43693953905222e-14 -5.13478148889135e-16 
62 1    0.666666666666629    0.166666666666629                  0.5 2.91433543964104e-16 4.61436444609831e-16 5.13478148889135e-16 
63 1    0.833333333333371                    0                  0.5 2.42861286636753e-16 2.29399832463173e-14 1.08940634291343e-15 
64 1    0.833333333333371    0.166666666666629    0.333333333333371 -7.63278329429795e-17 2.63677968348475e-16 -7.97972798949331e-17 
65 1    0.666666666666629    0.333333333333371    0.333333333333371 8.35343892582191e-17 5.67579837296162e-17 4.27074012005618e-17 
66 1    0.666666666666629                  0.5                  0.5 6.93889390390723e-16 8.15320033709099e-16 -4.63171168085807e-16 
67 1    0.833333333333371    0.333333333333371                  0.5 1.81799020282369e-15 1.30227588695381e-15 2.24820162486594e-15 
68 1    0.833333333333371                  0.5    0.333333333333371  1.8249290967276e-15 2.11983208764366e-15 1.16573417585641e-15 
69 1    0.666666666666629    0.666666666666629    0.333333333333371 1.52829138233557e-15 -3.05311331771918e-16 4.22893057377971e-16 
70 1    0.666666666666629    0.833333333333371                  0.5 2.24820162486594e-15 -2.46434816997265e-14 7.56339435525888e-16 
71 1    0.833333333333371    0.666666666666629                  0.5  4.3159920082303e-15 2.70616862252382e-16 1.38777878078145e-15 
72 1    0.833333333333371    0.833333333333371    0.333333333333371 3.36932765758816e-15 -2.59568706589483e-14 -8.46030060244751e-16 
73 1                    0                    0    0.666666666666629 -5.96744875736022e-16 2.25514051876985e-14 -1.38777878078145e-17 
74 1                    0    0.166666666666629    0.833333333333371 -6.43929354282591e-15 3.88578058618805e-15 -2.51881848711832e-14 
75 1    0.166666666666629                    0    0.833333333333371 3.40005801291454e-15 1.81504117291453e-14 -2.48481790698918e-14 
76 1    0.166666666666629    0.166666666666629    0.666666666666629 1.80411241501588e-15 1.47278023110431e-15 3.92047505570758e-16 
77 1                    0    0.333333333333371    0.666666666666629 -5.68989300120393e-15 -2.92127433354494e-15 7.49400541621981e-16 
78 1                    0                  0.5    0.833333333333371 -4.77395900588817e-15 -1.29398851659787e-15 -2.62290189567693e-14 
79 1    0.166666666666629    0.333333333333371    0.833333333333371 -1.4432899320127e-15  -2.468511506315e-15 -2.52593085336983e-14 
80 1    0.166666666666629                  0.5    0.666666666666629 -4.16333634234434e-16 -4.45823933326039e-16 5.20417042793042e-18 
81 1                    0    0.666666666666629    0.666666666666629 -5.41233724504764e-15 1.33226762955019e-15 -5.41233724504764e-16 
82 1                    0    0.833333333333371    0.833333333333371 -5.28743715477731e-15 -2.34950947586299e-14 -2.61700383585861e-14 
83 1    0.166666666666629    0.666666666666629    0.833333333333371 9.99200722162641e-16 1.73298875250083e-15 -2.37032615757471e-14 
84 1    0.166666666666629    0.833333333333371    0.666666666666629 1.04083408558608e-15 -2.31203944878189e-14 1.35828848168984e-15 
85 1    0.333333333333371                    0    0.666666666666629 -2.66261080024421e-15 2.30807025239105e-14 5.54826909242301e-16 
86 1    0.333333333333371    0.166666666666629    0.833333333333371 -2.94892148894332e-15 1.55498647270123e-15 -2.5147415481366e-14 
87 1                  0.5                    0    0.833333333333371 -5.4917550541822e-16 2.00413517975184e-14 -2.52436960224145e-14 
88 1                  0.5    0.166666666666629    0.666666666666629 -3.36164961004144e-16 1.85962356624714e-15 -2.20309881449055e-16 
89 1    0.333333333333371    0.333333333333371    0.666666666666629 -1.4528851212392e-15 -2.47701232897364e-15 1.37338260880991e-15 
90 1    0.333333333333371                  0.5    0.833333333333371 -1.37414493846244e-15 -7.06293340870315e-16 -2.46439729788359e-14 
91 1                  0.5    0.333333333333371    0.833333333333371 -6.83467497007706e-16 -2.24486770318555e-15 -2.54184897414099e-14 
92 1                  0.5                  0.5    0.666666666666629 2.06167819361697e-16 -1.31887095645641e-15 -4.64905891561784e-16 
93 1    0.333333333333371    0.666666666666629    0.666666666666629 -3.2172886316878e-15 2.08485979131742e-15 2.96309065608499e-16 
94 1    0.333333333333371    0.833333333333371    0.833333333333371 -4.51972714896748e-15 -2.23702553334669e-14 -2.50847621483235e-14 
95 1                  0.5    0.666666666666629    0.833333333333371 -3.34801630863524e-15 1.26981758441502e-15 -2.38004060904018e-14 
96 1                  0.5    0.833333333333371    0.666666666666629 -2.91433543964104e-15 -2.34048891378791e-14 6.52256026967279e-16 
97 1    0.666666666666629                    0    0.666666666666629 1.85962356624714e-15 2.37518338330744e-14 -3.22658566531686e-16 
98 1    0.666666666666629    0.166666666666629    0.833333333333371 1.63410951437015e-15 2.10595429983584e-15 -2.38212227721135e-14 
99 1    0.833333333333371                    0    0.833333333333371 1.98105420956551e-15  1.9744622603568e-14 -2.51465515077598e-14 
100 1    0.833333333333371    0.166666666666629    0.666666666666629 2.81719092498633e-15 3.80251385934116e-15 1.60982338570648e-15 
101 1    0.666666666666629    0.333333333333371    0.666666666666629 2.00707506170517e-15 -2.26685797965771e-15 6.03683769639929e-16 
102 1    0.666666666666629                  0.5    0.833333333333371 2.50494069931051e-15 -1.88564441838679e-15 -2.41300035508374e-14 
103 1    0.833333333333371    0.333333333333371    0.833333333333371 3.46647217224286e-15 -3.2607854675952e-15 -2.65882557940952e-14 
104 1    0.833333333333371                  0.5    0.666666666666629 3.60822483003176e-15 -3.57353036051222e-16 -1.2490009027033e-16 
105 1    0.666666666666629    0.666666666666629    0.666666666666629 3.06005221162309e-15 4.30211422042248e-16 -8.06646416329215e-16 
106 1    0.666666666666629    0.833333333333371    0.833333333333371  3.6498581934552e-15 -2.2310820725624e-14 -2.43940609899462e-14 
107 1    0.833333333333371    0.666666666666629    0.833333333333371 3.35322047906317e-15 1.87350135405495e-15 -2.52957377266938e-14 
108 1    0.833333333333371    0.833333333333371    0.666666666666629 4.13558076672871e-15 -2.48100151534203e-14 8.60422844084496e-16 
ITEM: TIMESTEP
100
ITEM: NUMBER OF ATOMS
108
ITEM: BOX BOUNDS pp pp pp
-8.3990498973924410e-02 1.2233990498973922e+01
-8.3990498973924410e-02 1.2233990498973911e+01
-8.3990498973924410e-02 1.2233990498973911e+01
ITEM: ATOMS id type xsu ysu zsu fx fy fz 
1 1  3.2671659027983e-05  0.00659456115795365  -0.0305070318849516   -0.242457352628954  -0.0415053946930027    0.432958821460667 
2 1  -0.0152038210113119    0.155013297609344    0.144481525418087   -0.578958749008208    0.510711310032732    0.152230134553365 
3 1    0.137888805027615   0.0050612320867458    0.166854054365103    0.543964891772629   -0.438228685837145   -0.193002344608115 
4 1    0.155065822677443    0.166090329367194   0.0083246310667846    0.076554718162843    0.235091220205895  0.00277304158173269 
5 1 -0.00689392345054785    0.336573129992189  -0.0268960508822715    0.310849729688211  -0.0975401225495286    0.710408696440541 
6 1   0.0153711561016507    0.486699948484102    0.161696789912526   -0.491743992003822   -0.353365462076517   -0.247420724375469 
7 1    0.188018966424465    0.324243928118904    0.171280120410756   -0.361455147767997   -0.115771330033853    0.173334683268404 
8 1    0.165516380895156    0.495538908968342   0.0104427830419809   0.0179108088424325   -0.264373720754131   -0.265176205211063 
9 1   -0.016537252061255    0.663757899792131  -0.0205837689168789    0.160577222145472    0.360312615086097    0.093121815497926 
10 1    -0.01790578925403    0.840317527975571    0.191623916194658    0.245384247276856   -0.134958706445839   -0.663272106120753 
11 1      0.1259163297849    0.668757288167399    0.156829058575113      0.2607379948918   -0.038778813336153    0.789040594373411 
12 1    0.127617159190891    0.816084674314311   0.0114992541546144    0.446217867931755     1.11313322513549   -0.413624675122334 
13 1    0.302490120540369  -0.0241945159766033   0.0166719670675093  0.00311707669271858 0.000191747368207437   -0.390558449095877 
14 1    0.335253755436725    0.151989413447609    0.136511009661376   -0.467810280477708   0.0391284030921391    0.861903377299787 
15 1    0.469233924157038  -0.0246382198955075    0.167801237534263   -0.308009371324802   0.0497215673681542   -0.625436556767309 
16 1    0.499712818415105    0.157030794802381  0.00133027203628444    0.213178062886908  -0.0937829420093711   -0.672151400800454 
17 1    0.338487009809114    0.327804265817804  -0.0126308399284198   -0.196606666706832    0.376770871658561    0.671410921534654 
18 1    0.329575024600672    0.488753041528184    0.146107807127805    0.489863212150757   -0.197865389725295    0.897623915462687 
19 1    0.487776619300803    0.307856736324652    0.162501594729292   -0.332113234846013    0.390125119249395    0.632199484607106 
20 1    0.520098415226016     0.47414355854653   0.0385019649811511  -0.0120004990560954    0.116810236732134   -0.827896179600336 
21 1    0.308844638332516    0.668071914125562   0.0381107681004096    0.258347300961242    0.410779474390019   -0.561753042133713 
22 1    0.296724548424095    0.837946575948649    0.189851158975671  -0.0270854490021937   -0.548114396991933   -0.637621341166462 
23 1    0.525167982787252     0.65112925047265    0.159038448537331    0.198858658636655   0.0660358851294627    0.478803060133822 
24 1    0.483423643996957    0.802437737470882   0.0222494408815237    0.170092504321526    0.555207577247667   -0.375724671775105 
25 1    0.628391762235879  -0.0158103376553527   0.0139748321379329    0.871284258462579   -0.325870729468819    0.302415236171399 
26 1    0.663784378093169    0.190112367257257    0.169863124661674    0.830186360341125   -0.739075669585668   0.0660881337507314 
27 1    0.820993728758594  -0.0168641006662824     0.18291139458745    -0.32413664289946    0.747140146542894   -0.675592235847237 
28 1    0.832203136482349    0.146349230858277  -0.0439940903059437  -0.0335248391373656   0.0910964291278413    0.201663024567777 
29 1    0.696979246942192    0.319785219523169  0.00143097529394254   -0.395396288582408    0.229996656147243   -0.484705528504246 
30 1    0.690818643995158    0.498992225152847    0.162593026248715  -0.0568529633892542  -0.0198223239692533    0.398397865036016 
31 1    0.838673711933893    0.344406833301377    0.159554650614609    0.313123492207568   -0.630459485939909   -0.177509855934261 
32 1    0.847654339931864    0.499533017703584  -0.0279098167627012    0.243236117631868     -0.8820068613887    0.302976073010262 
33 1     0.70651389709667    0.645386110523759  0.00285948169903349    -1.19160908227836    0.747460808224566   -0.276224397798231 
34 1    0.707105451804978    0.791419104637725    0.174249006524178   -0.909564051837123    0.478927775864897    0.189666165732396 
35 1    0.859170529234348    0.652061148302209     0.15467187985189    0.194640179814079   -0.532878226258965   -0.173259048203914 
36 1    0.839118143000633    0.839198048993012 -0.000123833807379015   -0.320519510929205   0.0752100563503138    0.307311779019149 
37 1 -0.00159942410488156  0.00818665024644361    0.328214380711415    0.168136663939513  -0.0792415210015075    0.772762637539278 
38 1   0.0169451764769519    0.192672137862473     0.50121648454865   -0.668107451751213   -0.561447328260152   -0.209141157129192 
39 1    0.147711925196404  0.00998988506478327    0.510542471585609    0.096255856937404   -0.114039501697136   -0.155122252781856 
40 1    0.166655817729634    0.158759574031251    0.335587138965593    0.180786027552072    0.162204692753492   -0.387847306283169 
41 1  -0.0127739092091019    0.330013694089303    0.316400155116639    0.770519637978415    -0.36115794758665    0.374175891290203 
42 1  0.00813875121320962    0.516984885217084    0.477935569462943   -0.352490255277856   -0.283209622661119    0.512526735880179 
43 1    0.176412606748272    0.336478392959066    0.475750833992947   -0.019604224615927    0.774670743076886  -0.0109489497984654 
44 1    0.161743205143125    0.519101468734334    0.324568289853801    0.596449263256923  0.00013703659138147   0.0598671028373307 
45 1  -0.0247086235597749    0.671211181159492    0.324281171298367    0.633159889965472    0.334405633210356    0.930278784474348 
46 1  0.00272179764886005    0.842239889636062    0.517930450246922   -0.283648635489736   -0.179621333675511    0.121049403697269 
47 1     0.18838401084497    0.671967786672553    0.539367437208398    0.228300246494479    0.145740854665305   -0.917006746846734 
48 1    0.158067774746883     0.82451927530883    0.349595731461932   -0.266117001869153   -0.180850714447307    0.476405606168339 
49 1    0.325972804829576 -0.00450445561403967    0.328793512617722   -0.385647470243636    0.845339896379231    0.627451917657295 
50 1    0.338110234610781    0.172237793840168    0.487018359595822   -0.205467503090268    0.283453227252067  -0.0362460568294559 
51 1    0.484610378158777   0.0251101315806181    0.502806978267813  -0.0120676942126222   -0.815059847982006   -0.177850666827464 
52 1     0.51246131670689    0.156601940729502     0.32377693514934   -0.822712391687254    0.448035379291717   0.0681376458541672 
53 1    0.347254000411226    0.338355525430075    0.344003516612929    0.145006945685837   -0.162350215932465   -0.800839992725424 
54 1    0.343356477325528    0.518396825310788    0.470239714742206   -0.020945888326011    0.238773613892546    0.388305525188717 
55 1    0.485089287238225    0.353599968930098    0.520604838697864    0.251155157918776   -0.361831952381732   -0.464802927922234 
56 1    0.521023480098279    0.487740244750512    0.316836595368727   -0.481365095247645     0.14348278541184  -0.0687561986907416 
57 1    0.361028953911728    0.658765294418799    0.303065529667265   -0.690850740366066   -0.558084418316859   0.0574686584694404 
58 1    0.327434875528866    0.857996688812136     0.51220646290858   -0.260824223370488   -0.114089081301952    0.126918486437989 
59 1    0.515859629656575    0.679761919024713    0.501433774996713   -0.612691055268398    -0.20880893516303   0.0666596633038811 
60 1    0.473859270868161    0.829737611647715    0.346330132389426    0.468390076891053    0.213421878290089   -0.112920312459902 
61 1     0.62801974829506  -0.0201876287335381    0.294641391355526     1.09775702088155   -0.163656579641751    0.496184260236831 
62 1     0.65327403381707    0.166408164709196    0.487545496060307    0.366906259826833    0.521488995323244   -0.236692348714785 
63 1    0.837125554474937   0.0361610290965473     0.51775136324045     0.27705313276433   -0.454644233670184   -0.650278181383362 
64 1    0.844838031097879    0.155550532686902    0.329337011531493   -0.651426560165427    0.491700552637589  -0.0341968510344258 
65 1    0.680581010564879    0.348640640941994    0.349407370410404    0.123155391469035   -0.632664448209833   -0.355473570389766 
66 1    0.645110802480644    0.501746060398318    0.503237312766032    0.367667378223384    0.178943363884993   0.0376762708667008 
67 1    0.831771123930025    0.314508833012383     0.50815032096898    0.554665857479814    0.339331934398022   -0.452143709622635 
68 1    0.847746222541218    0.497831332531291    0.318589315915347   -0.483545384383909    0.146366837767841    0.552247432556319 
69 1    0.670277517915792    0.665110372943218    0.360027795411156   -0.518552600517679    0.213497235787181    -1.87771971298718 
70 1    0.647911034902677    0.865513693782077     0.49075134736745    0.458892396308976    -0.33267412924482   -0.315108850504631 
71 1    0.805135422193189    0.663644217357955       0.501726830547     1.86072744289183    0.326062810162496    0.264376399221286 
72 1    0.835729647856283    0.857283071660845    0.362847595340099   -0.442774477129946   -0.311047546878134    0.389254793888237 
73 1  -0.0105631226932701   0.0165983746948086    0.681534850023468     0.39517727562772   -0.355809153081328  -0.0174489776096433 
74 1   0.0412202108201427    0.187603135527752    0.819712438171223   -0.649900931832195   -0.521825638663328   -0.322009586320106 
75 1    0.170078076293407 -0.00609088435106742    0.836559683552764  -0.0286786055676423    0.276902863592262     0.14525621501436 
76 1    0.185621704407026      0.1945862758148    0.647610863417867   -0.166551996085317   0.0442639056363811     0.39830010944451 
77 1   0.0355927289537021    0.357754724225401    0.648767260094246   -0.552480472022309    0.524151448659084    0.275080163330241 
78 1   0.0405953761641058     0.52015968623698    0.838069619448561   -0.845845993937905   -0.739115892244511    -0.80557473492628 
79 1    0.175232272443736    0.351136110802031    0.829232290423761    0.407172176397626   -0.186509939958219    0.169404035886765 
80 1    0.233204023548296    0.489025681844623    0.667209314362026   -0.841276132555185     0.93847814084015   -0.369421012374981 
81 1    0.021901870692659    0.650622614060808    0.660971417485257   -0.707757847256204    0.213333336083786    0.352634050482924 
82 1  -0.0257640758675279    0.841979932515528     0.83047389531589    0.327647232687264   -0.312924573018182   -0.427847192062357 
83 1    0.180038474709022     0.67490971742177    0.832551429885143    0.188630449218053    0.190895383260143   0.0839305981487573 
84 1    0.169920268177634     0.84109918205661    0.689655217694281   -0.139629727096812  -0.0424991115163021   -0.435004467500282 
85 1    0.311768211161052   0.0249771940585788     0.66479341321326    0.597028198009668   -0.483568728369352    0.241842379625264 
86 1     0.31113970436445    0.168831682023892       0.858680541382    0.406985615858979   -0.657180343709068   -0.880909662793934 
87 1    0.512138816646711  -0.0125251006197686    0.830302362934731   -0.437079171937211    0.376831911165444   -0.378070885145198 
88 1     0.49066277082261    0.167823394823927    0.675611704614198    0.155784539161075  -0.0490616716342451  -0.0276525583808208 
89 1     0.35971200008305    0.334172852972415     0.68943952924667    0.152790897429843   -0.472065047473883    0.643731463524634 
90 1    0.332689278535099    0.511517210092507    0.864133900056231  -0.0826743527552975   -0.131852236707546   -0.119318899263571 
91 1    0.514701025563113    0.342077213877019    0.861463589469963   -0.496839798937472   -0.524476868794153   -0.364226093926357 
92 1    0.510737247253019    0.509760312584376    0.690824611658172   -0.371590349156464   -0.568757968738768    -0.76053385891526 
93 1    0.369549669892194    0.681433793388123    0.662598033828317   -0.675610321241533   -0.433437279837101    0.564329222563772 
94 1    0.335216126143109    0.826910331679869    0.858709533935439    0.144190899723993  0.00713942256927787   -0.427587762893528 
95 1    0.508919279794668    0.623598172317884    0.866279530857696  -0.0329690000235205    0.800338251345031    0.642633432383696 
96 1    0.503332991397201    0.839206860247941    0.654643965393348    0.322101540328234    0.725140846376711    0.419854779595799 
97 1     0.65669129004084   0.0179117336696208    0.638477995032758    -0.01104172877648   -0.136411396622974    0.973182452645719 
98 1    0.663194545741817    0.185558608890233    0.809175958032142  -0.0401500800264163   -0.236474107461899    0.314710810252835 
99 1    0.770327282398284  -0.0257439695783432    0.824767988151052   0.0425900007213446    0.473927639136118    0.519234344206938 
100 1     0.84147796818479    0.172921916996643    0.682303635790618   0.0746185890052455     0.08371979283753   0.0883373581438067 
101 1    0.669029598753241    0.340334352679747    0.640626824908054   -0.125376648717649   -0.367657484818004    0.841433000633282 
102 1    0.666790457611228    0.480212580266311    0.839072596526307     1.06581183655929    0.200143741194481   -0.138229372230666 
103 1    0.841551860493837    0.338847327016765    0.815258048664987   0.0841819364503286    0.145941969368863  -0.0924556401107625 
104 1    0.829693302529222    0.503988201602397    0.655159168786895    0.505551393609631   -0.376085745518611   0.0037625915869542 
105 1    0.672067408253042    0.659616089300926    0.661619037060859   -0.572468275815157    0.599100300261195     0.70608940266687 
106 1    0.630802750875432    0.800609167978678    0.843782581408391    0.388903778718914  -0.0118375855093901    0.078894202414504 
107 1    0.823275214666637    0.659983717348268    0.820983041418685     0.40745383611235    0.323838110663946   -0.398719230312639 
108 1    0.819091446337325    0.842825028723723    0.665253769469246     0.04687466172552    -0.38862726592729   -0.559680160858583 
ITEM: TIMESTEP
200
ITEM: NUMBER OF ATOMS
108
ITEM: BOX BOUNDS pp pp pp
-1.7540009566128756e-01 1.2325400095661301e+01
-1.7540009566128756e-01 1.2325400095661291e+01
-1.7540009566128756e-01 1.2325400095661291e+01
ITEM: ATOMS id type xsu ysu zsu fx fy fz 
1 1  -0.0292031667194124  0.00792725157509722 -0.00490195900840718     1.27374396629418   -0.222012878411255   -0.860462316455804 
2 1 -0.00582965174436367    0.144370070900891     0.17235289073119    0.224060906127407    0.796503041487088   -0.214425632099648 
3 1    0.143121216655686  -0.0133958752325611    0.189598170559634    0.346404898807618   0.0834930584382007   -0.705029352570962 
4 1     0.17120771315831    0.149562221724068   0.0105861996031535   -0.325400786945296   -0.118599682362012  0.00230386055854079 