LAMMPS (17 Nov 2016)
units metal
dimension 3
boundary p p p
atom_style atomic
read_data structure.inp
  orthogonal box = (0 0 0) to (12.15 12.15 12.15)
  1 by 1 by 1 MPI processor grid
  reading atoms ...
  108 atoms
include potential.inp
pair_style eam/alloy
pair_coeff * * Al.lammps.eam Al
fix 1 all npt temp 800 800 1.0 iso 0.0 0.0 1.0
variable  dumptime equal 100
dump 1 all custom ${dumptime} dump.out id type xsu ysu zsu fx fy fz
dump 1 all custom 100 dump.out id type xsu ysu zsu fx fy fz
dump_modify 1 sort id format line "%d %d %20.15g %20.15g %20.15g %20.15g %20.15g %20.15g"
thermo_style custom step temp pe etotal pxx pyy pzz vol
thermo_modify format  float %20.15g
thermo 100
velocity all create 1600 48936 dist gaussian
run 10000
Neighbor list info ...
  1 neighbor list requests
  update every 1 steps, delay 10 steps, check yes
  max neighbors/atom: 2000, page size: 100000
  master list distance cutoff = 8.5
  ghost atom cutoff = 8.5
  binsize = 4.25 -> bins = 3 3 3
Memory usage per processor = 3.93753 Mbytes
Step Temp PotEng TotEng Pxx Pyy Pzz Volume 
       0                 1600    -362.880858320022    -340.751521496022    -3768.52510830852    -5004.57990988425    -7295.93529138081          1793.613375 
     100     669.770516107369    -350.849742569654    -341.586256728577     4008.58048061378     925.913350531965     426.743156058301     1869.03997172313 
     200     563.385564095816    -348.653126783856    -340.861033715322    -26781.2930185457    -17597.6451524367    -22781.2304865724     1953.50011369445 
     300     727.960982282802    -351.493475092771     -341.42516648548     1552.51368602164     852.332136037937     1894.16928321694     1861.54647645062 
     400     845.421779475652    -352.644230917008    -340.951341344282     16942.4702743864     20273.2741586748      20243.127169901     1806.24132109389 
     500      733.06758836618    -351.285190083958    -341.146252847887    -4894.98740434238    -7831.23368557141    -4621.85270428445     1880.94576108858 
     600     751.797225301063    -351.286757761847    -340.888773998075    -17868.1864560144    -16395.3824796653    -15076.3255641926     1909.37241576637 
     700     749.213108977777    -351.163876458971    -340.801633183017     6508.24362680596     10489.3434792279     13654.0509270153     1847.17366856036 
     800      702.61182383399    -350.369694121698    -340.651985555356     9321.31147605461     4685.90349435943     6761.02996420838     1856.01286178505 
     900     738.209848128626    -350.598983959009    -340.388924973989    -13298.7737592315    -9841.23743104057    -4274.57930044849      1898.6053852582 
    1000     675.188373329446     -349.55948416908     -340.22106483592     -725.89036381949     3769.68728341659     2711.16787013369     1878.91617260873 
    1100     817.904955499406    -351.272238360864    -339.959929454449     6561.06879585743    -1103.94558246861      4710.9431598194     1860.59218248323 
    1200     721.283815863629    -349.720125478376    -339.744167661535    -1886.28644005809    -5050.92605864639    -3.86513144560333     1878.95990449597 
    1300     804.244389131311    -350.661293003066    -339.537921143129     4277.11559649036    -3323.25219078609    -2384.77255011608     1873.14967252256 
    1400     781.269772277768      -350.1588799574    -339.353266244185     661.093391115566    -311.992910916964     5353.47750954248     1872.08809691208 
    1500     831.532469282419    -350.687141611183    -339.186352803156    -7326.70172808925     -3209.3750741672    -7125.92534532389     1886.17161898363 
    1600     725.065873946492     -349.08530910671    -339.057042266616     2707.44722291717     1794.22780237271     5046.64763797522     1880.22963572163 
    1700      770.07757023334    -349.588411039247    -338.937594831558     2685.85686286004     3772.12986006823     2078.81517964419     1878.12901896945 
    1800     777.260086411606    -349.587420061534       -338.837263654    -1369.85844174297    -103.922738492499    -2261.15424204107     1883.66443551479 
    1900     740.504399451818    -349.003528345521    -338.761733798569    -84.5786633033428     9283.14332175433     1949.76975035061     1882.08926574355 
    2000     807.994645432687    -349.862945671446    -338.687704633466    -6942.66695828584     4092.40481082762    -952.052504733083     1890.79891684042 
    2100     748.944458182652    -348.987650819868    -338.629123208873     16.1436221053345     4392.90803141167    -1530.90028832543     1887.70923893152 
    2200     831.363085887436    -350.060465325166    -338.562019231014     3167.17899719238     3928.71620532396    -1843.72039858218     1876.43669970265 
    2300      763.05688295502    -349.062631015803    -338.508916779064    -893.661915370568     831.087449821866    -1044.75027422023     1881.74994528726 
    2400     745.814183462826    -348.785655046955    -338.470421750726       2361.247711761    -1660.02988379233     5914.87630573546     1877.38987768631 
    2500     747.442223728698    -348.783506524455    -338.445756071097     4170.02650037722    -259.413857103321     7248.98878118354     1878.99431155521 
    2600     793.607715592051    -349.374410448643    -338.398152670854    -5289.26005065643    -1081.64753097727    -7584.54037739782     1892.40162985959 
    2700     833.113447769706    -349.892365251651    -338.369710190214        2871.10360017      -2836.131659423     4235.76608113015     1879.22762339699 
    2800     803.660392097245    -349.450876992216    -338.335582299199     2691.92075066644     2825.29073210506     -427.85190271035     1879.65377696537 
    2900     783.107266236817    -349.129322138931    -338.298294349008     -3471.9197615069     348.122461013774    -6254.66797598752      1893.3803534452 
    3000     776.714887881594    -349.044630794675    -338.302014938333     6866.02663918202     3792.14303759064    -1199.57109695514      1878.0887357856 
    3100     877.297326250807      -350.3799602119    -338.246205194776      7883.5690870116     2115.28814307087      3332.7159124098     1868.33978827356 
    3200      889.70579662785    -350.564396824174    -338.259022294272     -14358.142134264    -10594.6940156873    -9514.99260400519     1909.30034092819 
    3300      824.75342882977      -349.6953449826    -338.288315968023    -3950.63559405149    -13626.3744985776     -2785.0500467201     1897.84732648463 
    3400     813.778159614541    -349.393472018688     -338.13824014736     14795.0033595885     13167.3644527555     17219.1589912122     1847.60307532615 
    3500     821.029381922401    -349.569110823093    -338.213588488742    -1153.34801196064    -2395.81441905788     1291.91596269979     1884.41629798087 
    3600     829.740596027129    -349.585231225075    -338.109225521305    -13191.3030233515    -14810.2373292916    -6408.00862413386      1919.9936309459 
    3700     743.792243218249    -348.422787897999    -338.135519724715    -373.342526901411     2724.49440439255     8402.65542267204     1891.70020764853 
    3800     864.416348789952    -350.034647833454    -338.079047496863    -450.398808944711     4100.71871795693     3452.07791771672     1871.78716412954 
    3900     822.376293716267    -349.462204471435     -338.08805322161     9242.39568486609     5915.90813767089    -95.6501574959775     1874.98864473312 
    4000     753.021242845106    -348.529223709665    -338.114310760573    -7206.83055423875    -7976.38891997067    -1631.63077337483     1910.51014074688 
    4100     747.056491613796    -348.467838148224    -338.135422692301    -1507.59969332782    -11226.3739567891    -4562.91036843337     1905.95565050387 
    4200     769.699585078782    -348.709427471729     -338.06383911454     17150.7425997145     13075.3209684706     18788.2329970896     1848.19348240166 
    4300     816.052621973551    -349.476793217194    -338.190103631093     4271.55311600615    -11.8666437390939     2283.05000347592     1881.39294932964 
    4400     752.556810907305    -348.408977535769    -338.000488068417    -16248.3567253549     -7871.9138863018    -17576.4420594199     1931.82771688156 
    4500     821.239545212627     -349.55180186321    -338.193372794961     1971.89813919353     3144.26072885892     1091.10999627158     1879.10997421699 
    4600     856.844209455286    -349.841647623643    -337.990776300687     16769.2562289818     17665.5290677712      12217.100408612     1838.49560988079 
    4700     834.512794185958    -349.771380005752    -338.229370814203     -4889.6119065733    -4691.97800189676    -12364.6224647022     1903.55797841363 
    4800     695.811700142687     -347.67246851942    -338.048811345334    -7878.94256959904    -6318.86784214338     -16527.650495642     1928.42658459273 
    4900     913.087320744909    -350.786500201548    -338.157739657493     7031.52946515664     1119.41547175364     -1825.9383860278     1866.19257053722 
    5000     847.534196733239    -349.805231786311    -338.083125717956     13257.4889894036     9966.78875107348     12977.5470107337     1845.50222687166 
    5100     751.654377149727    -348.619713097538     -338.22370504305    -4403.07661361253    -5664.89442606395    -8129.42429589601      1905.3234779259 
    5200     772.702212554332    -348.871419734647    -338.184302530731    -9259.65142372551    -10092.6655745621    -7436.63791340728     1914.15586365692 
    5300     880.538729368221    -350.375130253439     -338.19654392296     3154.42455345756     5816.64217562883     3409.29110782105     1869.17298910173 
    5400      801.94598201029    -349.333626721845    -338.242043752745     3499.63585297968     4515.24480922605     5542.41997842014     1873.89157799975 
    5500     874.568475765817    -350.342201065226    -338.246188330305    -10896.1149877701    -10177.4918007023    -10804.5978714539     1902.94349513688 
    5600     750.002603109982    -348.674505810264    -338.301343170828     1362.07954290668     1004.64750533345     2136.30261973403     1885.96983075511 
    5700     796.305453514302    -349.344889845109    -338.331320097855     3462.87349274032    -2595.38656288067      6674.6543148177     1876.45504243445 
    5800     775.843225796548     -349.11071083364    -338.380150792221     1854.92147950878     1934.56303786204    -6771.86037951661     1888.39357099554 
    5900     827.089026938358    -349.872058812501    -338.432726524655      1899.1116546858    -2477.82118441315    -8406.48441619942     1889.98605881826 
    6000     845.469686490543    -350.185203460316    -338.491651293546     1998.44509925461     443.927216620564    -5431.99435988028     1881.93463424367 
    6100     836.549411781047    -350.126260504854     -338.55608319034      2085.4770360895    -3505.46385832881      4242.2236195639     1875.85833761005 
    6200      804.96942254193    -349.768450579978    -338.635050902196     4821.70378101263    -2274.26382243205     -2624.8420552025     1881.32757775519 
    6300     890.379953200686    -351.030967085448    -338.716268406876    -2777.89887050501    -10108.5433915511    -7969.02041926461     1883.37046269912 
    6400     764.788527844788    -349.384966150993    -338.807301818613     5068.49560047449     7168.89219376073       8799.565225819     1868.25157993219 
    6500     815.748179398369    -350.194435283887    -338.911956392967    -6256.01026162314    -4179.30142497713    -1447.78957281491     1886.27867233414 
    6600     807.840669232229    -350.186833979762    -339.013722561283    -4878.21767827272    -4810.69392843199     -2235.3202179305     1886.62741224094 
    6700     807.354932392855    -350.268344611794    -339.101951339644     6103.33809669653    -1957.84587827755    -1992.40144748408     1874.73269807488 
    6800     829.263246608562    -350.672973571396    -339.203570008918    -1740.65350573163    -4204.15053494401    -599.902717171112     1876.49862977632 
    6900     824.200539520568    -350.707234923457    -339.307852829974    -1623.84732508599     1206.67666599134    -1420.25092147962      1874.4672399932 
    7000     728.321834167836    -349.496741734705    -339.423442244347     5643.57399611665     4415.43475640542     772.929671981576     1879.86637887398 
    7100     821.109490329527     -350.86171947704    -339.505089176486    -9264.14858085764     -8148.9149914264    -7700.97134435186     1895.17794770076 
    7200     810.321188757269    -350.857951779011     -339.65053270299      1163.5226788269     3283.50111062233      3906.9344797626     1863.77699171591 
    7300     811.489441250172    -350.933047060065    -339.709470075974     6738.64322570224     1401.41682265931     6935.27129565903     1856.74152605741 
    7400     746.255252198781    -350.126585731935    -339.805252086569    -3492.61395564857    -10452.1025080123    -8683.19536824557     1894.51618437294 
    7500     691.771595352345    -349.520984376456    -339.953205227188     479.679462082677    -1538.91794485823    -4278.94041438746     1881.04530049834 
    7600     785.097120843772    -350.762899489618    -339.904350347927     12247.9827330578     9612.92957759477     9989.21538472394      1841.5650759508 
    7700     766.051199079406    -350.645796423817    -340.050668293281     530.981280707136     3211.62754308008    -3453.27846452783     1870.63762078936 
    7800     752.170839599249    -350.434472363093    -340.031321201416    -9891.22709414162    -11696.3137759737    -6901.75206166507      1899.1152803778 
    7900      792.03717162697    -351.065003941027    -340.110468098489     2857.27414212959     999.212136091606     2368.16187774048     1868.65026516562 
    8000      841.19352320228    -351.747192744488    -340.112783488794    -1147.75294407916     4229.44155213538     1950.67491484067     1859.37773487383 
    8100     689.383447552237     -349.72576685564    -340.191017785781    -4026.69703776223     840.460421792268    -1107.77308565381      1883.8070792514 
    8200     678.857634640025    -349.569940381661    -340.180772098852    -3435.41565107769    -5848.34938545956    -1792.31251720593      1889.2466670657 
    8300     819.554335825974    -351.514763673062    -340.179642458648     3498.00820039988     3768.57832034052    -4576.74516964969     1858.34873135213 
    8400     801.650351851276    -351.247412601397    -340.159918444401      5033.4261296707     4880.19830301213     6764.75304280433     1852.54832533005 
    8500     746.151461330048    -350.449032865621    -340.129134734688    -4762.21634255057    -10462.0220980919    -7981.63936995338     1893.15125841974 
    8600     679.193869786869    -349.488569637517    -340.094750941698     106.386807666496    -4168.25579271869    -2718.07504028722     1887.47858739294 
    8700     794.380941826907    -351.010025933309     -340.02307379065     4934.82160990804     5365.95355869603     6929.47414616068     1852.99184236505 
    8800     762.276453275812    -350.467553191599    -339.924632949384     4128.47126771115     4815.05840584185     5792.18593232522     1856.52158675863 
    8900     747.457551816825    -350.143668367441    -339.805705913818    -4341.09338610903    -8456.70691232904    -9314.54678184042     1892.65211057185 
    9000     805.006872447322    -350.838607277935    -339.704689636671    -5277.60967499788     -4830.9304513133    -3964.09372319114      1883.0109818638 
    9100      680.96065625859    -348.904959080196    -339.486704251297     11734.6488597396     12147.4950887861     14133.8168215734     1852.78871966961 
    9200     738.286935232323    -349.570695741819    -339.359570577748    -4254.39317915413     351.221616820115    -4986.25241227857     1885.86216407985 
    9300      728.07211080375    -349.165713085142    -339.095867477557    -6351.15301409247    -4536.72496657338    -5577.36846176368     1898.16068177908 
    9400     833.534992559755    -350.387455718548    -338.858970340458     2750.71606708199     9949.45876606138     4637.74563802511      1864.1188426749 
    9500      818.54951442129     -349.91886133465    -338.597637639806     1407.00213643871     5809.37034259756     3530.21241448829     1868.60377524737 
    9600      771.38429196627    -349.014487687474    -338.345598426434    -4773.35597099345    -1710.28373170074    -4865.24654440524     1895.93335907218 
    9700     745.766155584622     -348.42907851455    -338.114509484005    -260.614583539719     1081.82796105352     2540.50880913491     1892.78737404589 
    9800     823.053833415202     -349.26902306091    -337.885500870954     2085.09246282395     5695.17170053038     7263.67483891127     1872.78805995955 
    9900     823.811278548422    -349.120156470186    -337.726158181181     4046.70475874252     3897.22230034588     1665.31406458208     1884.39070031154 
   10000     722.633087806794    -347.502610846047    -337.507991470895     -4921.4821271941    -11156.2473007943    -5892.71914521367     1919.57756484428 
Loop time of 2.7803 on 1 procs for 10000 steps with 108 atoms

Performance: 310.758 ns/day, 0.077 hours/ns, 3596.737 timesteps/s
99.9% CPU use with 1 MPI tasks x no OpenMP threads

MPI task timing breakdown:
Section |  min time  |  avg time  |  max time  |%varavg| %total
---------------------------------------------------------------
Pair    | 2.555      | 2.555      | 2.555      |   0.0 | 91.90
Neigh   | 0.037407   | 0.037407   | 0.037407   |   0.0 |  1.35
Comm    | 0.072569   | 0.072569   | 0.072569   |   0.0 |  2.61
Output  | 0.034694   | 0.034694   | 0.034694   |   0.0 |  1.25
Modify  | 0.062221   | 0.062221   | 0.062221   |   0.0 |  2.24
Other   |            | 0.01841    |            |       |  0.66

Nlocal:    108 ave 108 max 108 min
Histogram: 1 0 0 0 0 0 0 0 0 0
Nghost:    1483 ave 1483 max 1483 min
Histogram: 1 0 0 0 0 0 0 0 0 0
Neighs:    7813 ave 7813 max 7813 min
Histogram: 1 0 0 0 0 0 0 0 0 0

Total # of neighbors = 7813
Ave neighs/atom = 72.3426
Neighbor list builds = 123
Dangerous builds = 0
Total wall time: 0:00:02
