ITEM: TIMESTEP
0
ITEM: NUMBER OF ATOMS
108
ITEM: BOX BOUNDS pp pp pp
0.0000000000000000e+00 1.2150000000000000e+01
0.0000000000000000e+00 1.2149999999999990e+01
0.0000000000000000e+00 1.2149999999999990e+01
ITEM: ATOMS id type xsu ysu zsu fx fy fz 
1 1                    0                    0                    0 1.90819582357449e-16 1.98834004816462e-14 1.97836538817775e-14 
2 1                    0    0.166666666666629    0.166666666666629 5.23886489744996e-16 9.26342336171615e-16  8.6389229103645e-16 
3 1    0.166666666666629                    0    0.166666666666629  1.0547118733939e-15 2.00013616780126e-14 6.69603261727048e-16 
4 1    0.166666666666629    0.166666666666629                    0 1.04777297948999e-15 1.79630615937398e-15 2.02893257750247e-14 
5 1                    0    0.333333333333371                    0 2.51534904016637e-16 -4.6898249173033e-15 1.89639970393785e-14 
6 1                    0                  0.5    0.166666666666629 1.38777878078145e-17 4.36196218034368e-15 1.06512021424976e-15 
7 1    0.166666666666629    0.333333333333371    0.166666666666629 8.67361737988404e-18 -5.04631059161653e-15 6.99960922556642e-16 
8 1    0.166666666666629                  0.5                    0 1.64451785522601e-15 5.44009282066327e-15 2.05959381494036e-14 
9 1                    0    0.666666666666629                    0 -1.73472347597681e-16 -1.97758476261356e-16 2.01609562378025e-14 
10 1                    0    0.833333333333371    0.166666666666629 -4.5102810375397e-15 -1.9970136655445e-14 1.17614251671228e-15 
11 1    0.166666666666629    0.666666666666629    0.166666666666629 2.17187379192296e-15 -7.45063732932039e-16 1.30104260698261e-16 
12 1    0.166666666666629    0.833333333333371                    0  2.8345381597461e-15  -1.929532922329e-14 1.94592605917698e-14 
13 1    0.333333333333371                    0                    0 -8.15320033709099e-16 1.97081934105725e-14 1.96279624498086e-14 
14 1    0.333333333333371    0.166666666666629    0.166666666666629 -1.53696499971545e-15 8.80155323623732e-16 8.09031661108683e-16 
15 1                  0.5                    0    0.166666666666629 1.37216626949765e-15 2.03513421392909e-14 5.79397640976254e-16 
16 1                  0.5    0.166666666666629                    0 1.47017814589034e-15 1.76941794549634e-15 2.07017562814382e-14 
17 1    0.333333333333371    0.333333333333371                    0 -3.33066907387547e-16 -4.99730465342019e-15  1.9630347694588e-14 
18 1    0.333333333333371                  0.5    0.166666666666629 -5.23886489744996e-16 4.73845632362328e-15 1.16876994193937e-16 
19 1                  0.5    0.333333333333371    0.166666666666629 1.20795714702816e-15 -5.00988139862102e-15 8.03827490680753e-16 
20 1                  0.5                  0.5                    0 2.22738494315422e-15 4.45650460978442e-15 2.10964058722229e-14 
21 1    0.333333333333371    0.666666666666629                    0 -1.41553435639707e-15 4.72928987638177e-16 2.03153466271644e-14 
22 1    0.333333333333371    0.833333333333371    0.166666666666629 -1.72084568816899e-15 -1.9560958755549e-14 4.29127219869763e-16 
23 1                  0.5    0.666666666666629    0.166666666666629 -9.80425210131616e-16 -1.43461631463282e-15 8.44810332800705e-16 
24 1                  0.5    0.833333333333371                    0 -1.13624387676481e-15 -1.93838001205648e-14 2.10276674544874e-14 
25 1    0.666666666666629                    0                    0 1.49880108324396e-15 2.08132122647697e-14  2.0719537197067e-14 
26 1    0.666666666666629    0.166666666666629    0.166666666666629 -3.64291929955129e-16 9.40220123979429e-16 8.49147141490647e-16 
27 1    0.833333333333371                    0    0.166666666666629 7.59808882477842e-16 1.93768612266609e-14 7.35522753814166e-16 
28 1    0.833333333333371    0.166666666666629                    0 7.84095011141517e-16 1.85962356624714e-15 1.96561517062932e-14 
29 1    0.666666666666629    0.333333333333371                    0 5.51642065360625e-16 -4.38581462813836e-15 2.00742200640036e-14 
30 1    0.666666666666629                  0.5    0.166666666666629 7.97972798949331e-17 3.96210841913103e-15 9.99200722162641e-16 
31 1    0.833333333333371    0.333333333333371    0.166666666666629  4.8919202022546e-16 -4.69416172599324e-15 7.91033905045424e-16 
32 1    0.833333333333371                  0.5                    0 1.00613961606655e-16 4.73666245115467e-15 1.99978922310606e-14 
33 1    0.666666666666629    0.666666666666629                    0 1.75900960464048e-15 -4.60569082871842e-16 2.12815876032835e-14 
34 1    0.666666666666629    0.833333333333371    0.166666666666629 1.12323345069498e-15 -1.85112342121485e-14 7.81492925927552e-16 
35 1    0.833333333333371    0.666666666666629    0.166666666666629 1.36696209906972e-15 -2.42861286636753e-16 2.08860706507608e-15 
36 1    0.833333333333371    0.833333333333371                    0 5.56846235788555e-16 -1.91825721973515e-14  2.0344836926256e-14 
37 1                    0                    0    0.333333333333371 2.46330733588707e-16 1.97871233287295e-14 -5.31172328344098e-15 
38 1                    0    0.166666666666629                  0.5 -3.81639164714898e-17  1.7728873924483e-15 4.93702301262999e-15 
39 1    0.166666666666629                    0                  0.5 1.56819002228303e-15 2.01522826204226e-14  5.5198901005582e-15 
40 1    0.166666666666629    0.166666666666629    0.333333333333371 -3.46944695195361e-17 6.66133814775094e-16 -4.92661467177413e-15 
41 1                    0    0.333333333333371    0.333333333333371 3.22658566531686e-16 -4.65079363909382e-15 -4.72798883377479e-15 
42 1                    0                  0.5                  0.5 -3.61516372393567e-15 5.82259934711615e-15 4.71150896075301e-15 
43 1    0.166666666666629    0.333333333333371                  0.5 -1.45022882591661e-15 -4.69763117294519e-15 5.00554458993108e-15 
44 1    0.166666666666629                  0.5    0.333333333333371 -1.37737043992558e-15 4.75636447391631e-15 -4.91794105439425e-15 
45 1                    0    0.666666666666629    0.333333333333371 -4.12517242587285e-15 -9.12464548363801e-16 -4.74620343027254e-15 
46 1                    0    0.833333333333371                  0.5 -4.00027233560252e-15 -2.13110779023751e-14 5.65693325516037e-15 
47 1    0.166666666666629    0.666666666666629                  0.5 2.70616862252382e-16 -4.44089209850063e-16 4.52589354882349e-15 
48 1    0.166666666666629    0.833333333333371    0.333333333333371 -1.08376849161651e-15 -1.96648253236731e-14 -5.49213452494257e-15 
49 1    0.333333333333371                    0    0.333333333333371 -3.43475248243408e-16 2.03702072570922e-14 -5.80330054844591e-15 
50 1    0.333333333333371    0.166666666666629                  0.5 -5.48172618408671e-16 9.84238732182341e-16 5.41428880895811e-15 
51 1                  0.5                    0                  0.5 2.29677388219329e-15   2.053066917862e-14 4.61262972262233e-15 
52 1                  0.5    0.166666666666629    0.333333333333371 1.23456219936222e-15 9.08995101411847e-16 -4.73579508941668e-15 
53 1    0.333333333333371    0.333333333333371    0.333333333333371 -7.80625564189563e-16 -5.23886489744996e-15 -5.54417622922188e-15 
54 1    0.333333333333371                  0.5                  0.5 7.21644966006352e-16 5.61114946670388e-15 4.43915737502465e-15 
55 1                  0.5    0.333333333333371                  0.5 1.62977270568021e-15 -4.30905311432639e-15 4.39470508595274e-15 
56 1                  0.5                  0.5    0.333333333333371 1.63324215263216e-15 4.12820819195581e-15 -4.46170878021235e-15 
57 1    0.333333333333371    0.666666666666629    0.333333333333371 -4.19803081186387e-16 -5.88288098790635e-16 -4.92704835264313e-15 
58 1    0.333333333333371    0.833333333333371                  0.5 -6.17561557447743e-16 -2.02977825519701e-14 5.47261888583783e-15 
59 1                  0.5    0.666666666666629                  0.5 -4.10262102068515e-16 -1.28022592527088e-15 3.83482308408123e-15 
60 1                  0.5    0.833333333333371    0.333333333333371 -1.46887710328336e-15 -1.97543804231204e-14 -5.45050116151913e-15 
61 1    0.666666666666629                    0    0.333333333333371 6.26235174827627e-16 2.08617845220971e-14 -5.2054714705374e-15 
62 1    0.666666666666629    0.166666666666629                  0.5  4.5102810375397e-17 1.79370407416002e-15 4.59181304091061e-15 
63 1    0.833333333333371                    0                  0.5  1.6306400674182e-16 1.95642113620664e-14 4.85462364752109e-15 
64 1    0.833333333333371    0.166666666666629    0.333333333333371 5.22151766269019e-16 8.37871438896798e-16 -4.46170878021235e-15 
65 1    0.666666666666629    0.333333333333371    0.333333333333371 -3.22658566531686e-16 -4.56926163572291e-15 -4.68678915122034e-15 
66 1    0.666666666666629                  0.5                  0.5  7.0082828429463e-16 4.73926453636864e-15 3.60822483003176e-15 
67 1    0.833333333333371    0.333333333333371                  0.5 1.43114686768087e-15 -3.69235891861663e-15 5.83040560275805e-15 
68 1    0.833333333333371                  0.5    0.333333333333371 1.33313499128818e-15 5.57540125178946e-15 -3.70189989773451e-15 
69 1    0.666666666666629    0.666666666666629    0.333333333333371 1.26548077572508e-15 -1.57252683097298e-15 -4.31252256127834e-15 
70 1    0.666666666666629    0.833333333333371                  0.5 1.96023752785379e-15 -1.97819191583015e-14 4.49466852625591e-15 
71 1    0.833333333333371    0.666666666666629                  0.5 2.76167977375508e-15 -1.0772632785816e-15 4.41140179940902e-15 
72 1    0.833333333333371    0.833333333333371    0.333333333333371 1.69092170820839e-15 -2.05929023833207e-14 -5.38371430769402e-15 
73 1                    0                    0    0.666666666666629 -1.59594559789866e-16 1.88174129056584e-14 -9.78384040450919e-16 
74 1                    0    0.166666666666629    0.833333333333371 -4.81212292235966e-15 3.81118747672105e-15 -2.06380051936961e-14 
75 1    0.166666666666629                    0    0.833333333333371 3.10515502199848e-15 1.54286305953377e-14 -2.02754479872169e-14 
76 1    0.166666666666629    0.166666666666629    0.666666666666629 1.80411241501588e-15 2.07819872422021e-15 -4.32813507256213e-16 
77 1                    0    0.333333333333371    0.666666666666629 -4.03843625207401e-15 -7.41767758327683e-15 -2.63677968348475e-16 
78 1                    0                  0.5    0.833333333333371 -3.46597750500166e-15 2.03222855210683e-15 -2.08236206056256e-14 
79 1    0.166666666666629    0.333333333333371    0.833333333333371 -9.61036805691151e-16 -6.62143950780347e-15  -2.034310220278e-14 
80 1    0.166666666666629                  0.5    0.666666666666629 8.32667268468867e-17 3.10342029852251e-15 -1.0096090630185e-15 
81 1                    0    0.666666666666629    0.666666666666629 -4.23966417528732e-15 5.06539254985228e-16 -1.20042864537595e-15 
82 1                    0    0.833333333333371    0.833333333333371 -4.54497550705923e-15 -1.89700685715444e-14 -2.08279574143155e-14 
83 1    0.166666666666629    0.666666666666629    0.833333333333371 1.11889664200504e-15 8.77770078844264e-16 -1.87697080100691e-14 
84 1    0.166666666666629    0.833333333333371    0.666666666666629  1.0547118733939e-15 -1.86448079197987e-14 1.05818132034585e-16 
85 1    0.333333333333371                    0    0.666666666666629 -1.38430933382949e-15 1.89319046550729e-14 -2.38307637512314e-16 
86 1    0.333333333333371    0.166666666666629    0.833333333333371 -1.75900960464048e-15 2.46721046370801e-15 -2.01455605669532e-14 
87 1                  0.5                    0    0.833333333333371 -1.13797860024079e-15 1.70453928749481e-14 -2.03257549680202e-14 
88 1                  0.5    0.166666666666629    0.666666666666629 -9.81075731435107e-16  2.4980018054066e-15 -1.0547118733939e-15 
89 1    0.333333333333371    0.333333333333371    0.666666666666629 -2.53269627492614e-16 -7.17698470098505e-15 1.75857592377149e-16 
90 1    0.333333333333371                  0.5    0.833333333333371 -5.20417042793042e-16 2.35250187385905e-15 -1.98628006403689e-14 
91 1                  0.5    0.333333333333371    0.833333333333371 -1.36089056690381e-15 -6.8660355179162e-15 -2.04363435896138e-14 
92 1                  0.5                  0.5    0.666666666666629 -4.16333634234434e-16 2.08492077768963e-15 -1.93855348440408e-15 
93 1    0.333333333333371    0.666666666666629    0.666666666666629 -2.23779328401008e-15 1.01676479735691e-15 -7.14489231667947e-16 
94 1    0.333333333333371    0.833333333333371    0.833333333333371 -3.6498581934552e-15 -1.81944303373482e-14 -2.01282133321934e-14 
95 1                  0.5    0.666666666666629    0.833333333333371 -3.73399228204008e-15 3.10515502199848e-16 -1.89861147636972e-14 
96 1                  0.5    0.833333333333371    0.666666666666629 -3.59521440396193e-15 -1.86829718362702e-14 -6.80011602582908e-16 
97 1    0.666666666666629                    0    0.666666666666629 1.66533453693773e-15 1.99024824398819e-14 -1.24119464706141e-15 
98 1    0.666666666666629    0.166666666666629    0.833333333333371 1.30017524524462e-15 3.08867514897671e-15 -1.90784887887929e-14 
99 1    0.833333333333371                    0    0.833333333333371  9.9399655173471e-16 1.66932440093248e-14 -2.00811589579075e-14 
100 1    0.833333333333371    0.166666666666629    0.666666666666629 1.37737043992558e-15 4.13558076672871e-15 8.67361737988404e-17 
101 1    0.666666666666629    0.333333333333371    0.666666666666629 1.52221985016965e-15 -6.85658414456855e-15 -9.79251402188908e-16 
102 1    0.666666666666629                  0.5    0.833333333333371 2.25340579529387e-15 1.19175502799607e-15 -1.92801503928752e-14 
103 1    0.833333333333371    0.333333333333371    0.833333333333371 1.64842098304696e-15 -7.12711140105071e-15 -2.1242556325074e-14 
104 1    0.833333333333371                  0.5    0.666666666666629 2.32452945780892e-15 2.97505076130022e-15 -1.75207071073658e-15 
105 1    0.666666666666629    0.666666666666629    0.666666666666629  2.9247437804969e-15 -5.64652491430451e-16 -2.19962936753859e-15 
106 1    0.666666666666629    0.833333333333371    0.833333333333371 3.00193897517786e-15 -1.81599527082632e-14 -1.95485988507826e-14 
107 1    0.833333333333371    0.666666666666629    0.833333333333371 1.59421087442269e-15 7.59808882477842e-16 -2.00672811700997e-14 
108 1    0.833333333333371    0.833333333333371    0.666666666666629 2.06605565988838e-15 -1.98400323947467e-14 -4.54497550705923e-16 
ITEM: TIMESTEP
100
ITEM: NUMBER OF ATOMS
108
ITEM: BOX BOUNDS pp pp pp
1.4835903966661235e-02 1.2135164096033339e+01
1.4835903966661235e-02 1.2135164096033328e+01
1.4835903966661235e-02 1.2135164096033328e+01
ITEM: ATOMS id type xsu ysu zsu fx fy fz 
1 1   0.0131790537989218 -0.00104424691562599  -0.0118535843184304   -0.581053395717121   -0.108267742140699  -0.0202323206983541 
2 1  0.00578404205475636     0.16398590836161    0.166578540511409   -0.205666314358935   0.0153477378072376   -0.135605365225771 
3 1    0.157400617013536 -0.00774561807577356    0.160404287936217    0.173503515383856    0.170338479177655    0.400427717530501 
4 1    0.162298281473909    0.165172477528017 -0.000764047321695216    0.222057921134572  -0.0678047034446165   -0.162730470393438 
5 1  0.00594846103626878     0.32826089657874 -0.00759200731675946    0.198761095200085    0.233029119346717    0.482138026131342 
6 1 -0.00688726743675261    0.503541864604017    0.166609976839936    0.480047204127274  -0.0335017092985058    0.359825417760976 
7 1    0.162480248420934    0.333206347224746    0.173942479953666  -0.0094361894605922    0.020893484936862  -0.0544795258916343 
8 1    0.170211817943823    0.496274990795882  0.00324325273652448   -0.140632820369866  -0.0713676315134941   0.0405805217637125 
9 1 -0.00108717324036434     0.66033154769957   0.0129262242003279   0.0807258743389827    0.498748263167536   -0.559933618155876 
10 1 -0.00702060909526381    0.836223221147293    0.164860214252258   0.0517135507612694   -0.127347407017263  -0.0377827816221833 
11 1    0.167763206551058    0.666141008733234    0.166744316165591   -0.113277125157532    0.120771979337861    0.306542852878563 
12 1    0.164042474546022    0.828350561718821  0.00372763045186275  0.00956668410494164  -0.0822841937713895   -0.425711381833545 
13 1    0.331419174908433 -0.00244114906786308  0.00186116121619762    -0.38423749517022  -0.0956248061710668   -0.218532317259311 
14 1    0.320738181752176    0.158476575575833    0.175105005472346   0.0510539425531242    0.262077721282667   -0.265280712472607 
15 1    0.490399770493923 -0.00210877376673579    0.169914391602902    0.413549242681066   -0.145430667934319  -0.0285238979269684 
16 1     0.49080725565409     0.15206716589546   0.0150911968199807    0.311268992763437    0.496738715770764   -0.526228028291646 
17 1    0.323162923942277    0.325656089110112  0.00325955570792757    0.410795946620752   0.0546353777740633    0.131594828620295 
18 1    0.325305942755335    0.502642190156394    0.172539602264806     0.38930806182759   -0.225475313105261  -0.0968805024052264 
19 1    0.493441411619756    0.320905134133113    0.160323258117273   -0.149761686466985    0.494853770849492    0.336160401761706 
20 1    0.492361539955482    0.502219841827127 -0.00213003523901989    0.183026346113227   -0.326568846556763    0.204210209008332 
21 1     0.32575743989662    0.657092976126478 -0.00411471905709959    0.327375598242871    0.459020711507316    0.176617886853636 
22 1    0.327657805735157    0.835402217144747    0.166259460056267    0.198421911029672   -0.198046456459533   -0.074521847855285 
23 1    0.498420301009332    0.665394798802595    0.166738054419511   -0.067516701504774    0.177112939843852    -0.31022830808638 
24 1    0.498079074223256    0.839112663710125 -0.00382805845890744   -0.164482682491234   -0.289115386879287    0.205542556226216 
25 1    0.670040705827546 -0.00534104132862012  0.00356682470123815  -0.0511933193137538    0.560018156794158    0.144432026001862 
26 1    0.668005409741454    0.172288555329601     0.16761533775275    0.204125403445201   -0.537755275224969    0.149024010808209 
27 1    0.834603441821514 -0.00254322423370468    0.173693077578946  -0.0353640021583986    0.141938558138482   -0.461559650208884 
28 1    0.845412519828074     0.16684104093838  -0.0105374171390622   -0.342556387018282   -0.234632265014454    0.495519670467631 
29 1     0.66643513309657    0.324624276401323    0.014222259183498    0.114717036711911    0.320407769156614   -0.659842219891969 
30 1    0.662880085899474    0.502101884923945    0.165262993325655  -0.0151374497969515   0.0909593097193771   -0.461308994453848 
31 1     0.84119124815129    0.335617014948753    0.169314474042608   -0.140270866630446   -0.164129948922264   -0.387681282357108 
32 1    0.844567550483475    0.497689041861122 0.000317634843781889   -0.625384647234208   0.0476553926915134  -0.0440818361074273 
33 1    0.658145938695043     0.67266628070422 -0.00247557066563786   0.0737338885454036   -0.166092583707523  -0.0847586176355859 
34 1    0.667335266462715    0.836445129116555    0.171559993174469   -0.330408390701688 -0.00928013515320896   -0.476161967608845 
35 1    0.822712522464371    0.673508871860122    0.162778987979323    0.199947050314018    -0.29048950332308   -0.145649054535856 
36 1    0.827916896364854    0.838142218337794 -0.00493317092838197    0.428121552083387   -0.207788479770063   0.0887035086742173 
37 1  -0.0108119041673262 -0.00252692086945672    0.339187491230518    0.312787580320081   -0.218818917965075 -0.00739014385118875 
38 1 -0.00188777357107028     0.16188829348539    0.506265282571462   -0.100271114745461   0.0614228706375998   -0.295668207238173 
39 1    0.160378627003638 -0.00687368947359346    0.507783156086589    0.305562651069895    0.199554073162322   -0.294867498520341 
40 1    0.157726005667087    0.158217132245568     0.33445014794313   0.0411973115095166    0.101383860025255    0.314477611511977 
41 1 -0.00554464753258799    0.343237458007366    0.332094503147232    0.247648639468992  -0.0951629516114382    0.226613707542273 
42 1  0.00397116931185337    0.517028319800147    0.494915489340542   -0.300612964299665   -0.196911500705561  -0.0555657158392318 
43 1    0.154696967945483    0.336646278319336    0.499067334806909    0.381551042328032   -0.521300438107947    -0.55044993204083 
44 1    0.175043905897041    0.506482432781013    0.339691661962775   -0.330170833656476    0.075389133941626   -0.086346263372229 
45 1 -0.00898061667123784    0.680331680331392    0.331784687054551    0.313527944147009   -0.416354130622682  -0.0620637048749116 
46 1 -0.00751788781366258    0.834086521423615    0.496980992866952  -0.0647108338712393   -0.151912375183287     0.22525570670559 
47 1    0.175651001377219    0.680010832388916    0.499887380420091   -0.196746550063758   -0.452776265246614   -0.282615480712817 
48 1    0.165789102561575    0.836606340401772    0.336304528845631  -0.0673930455945655  -0.0263657974988663   -0.116906654686358 
49 1    0.331310721375871 -0.00334150053646454    0.330150545324159    -0.16529477184621  0.00489363084151182    0.398164931398549 
50 1    0.340133819437597    0.164022151723088    0.497349674735801   -0.494443905080979    0.135169895276982  -0.0612128973427475 
51 1    0.503276301294363   0.0166007464995346    0.497819296911189    0.380381118446352   -0.683727739250315   0.0621468425290293 
52 1    0.496113233271558    0.163807726780988    0.331638886778819    0.234066543915131     0.25426794318517   -0.255484230301393 
53 1    0.326384044325891    0.327184663398043       0.340347770167   0.0191236321241064   0.0834808967723257   -0.299812533259071 
54 1    0.335595534013123    0.490667740324284    0.500085978679635    0.246876196844013    0.374002084628548   0.0990107446459399 
55 1    0.500534206566385    0.332611060821364    0.490864280074902    0.107874237197526   -0.169528088877001    0.184077387926971 
56 1    0.500733849154813    0.501327622328745    0.330183300657723   -0.270183986136532   -0.220265607854205   0.0355213502261818 
57 1    0.345186409705661     0.67600245193762    0.333309244953739   -0.313561034636056   -0.206198816077442    0.203064352906535 
58 1    0.340010534175576    0.838597811333102    0.501058353164126    0.157558246955572    0.132187030335429   0.0236607230793928 
59 1    0.508100688058562    0.664080292578319    0.508995041317121   -0.346898938102144   0.0650460474913065  -0.0484319024816696 
60 1    0.504011474034201    0.838816666967432    0.329076228060899  -0.0406567639508034  -0.0769945664673374    0.342589958054678 
61 1    0.667605750114376  0.00336077073313845    0.329018070058282   0.0372082659837804    0.116320721192883    0.274147882606253 
62 1    0.672441493196061    0.180582899634601    0.491973021049034    0.082810086519927   -0.123804930438478  0.00655907669250862 
63 1    0.822899167152855  0.00511454809725365    0.507227382653696    0.125046940892566  -0.0990376314740045   -0.227417290530765 
64 1    0.846228036030084    0.166798177781516    0.327207103478258   -0.512561135413811    0.202814955976063    0.341503008622331 
65 1    0.672614330082865    0.345770734847179    0.320887817013954   -0.207878785335202   -0.524638000639391     0.37758433266804 
66 1    0.659547506713579    0.492519969403361    0.500263206690988    0.303671846407355    0.330942994617429   -0.100850639428431 
67 1    0.833310881539546    0.348894073728047    0.503158630847111   0.0885405682179402   -0.265973375681458   -0.577140246719349 
68 1    0.830369520809995     0.50886199980846    0.326948996158308   0.0818404107806193    0.104810410768334    0.244392424360714 
69 1    0.657083420675349    0.663754411574359    0.331848815151716    0.108881136261469   0.0657489136863888     0.20718551721534 
70 1    0.660380321442517    0.835158526462465    0.506195519367452   0.0534925019966092   0.0268266473593982  -0.0223603244962857 
71 1    0.826159119642284    0.666719223411746    0.507717619459868   0.0045174027130063   0.0594890575599863   -0.205606582128331 
72 1    0.819600007806343     0.82118784325678     0.33256608865338    0.194685528165701    0.579976605347255    0.419472310658021 
73 1 -0.00518064147803443 -0.00436520983930677    0.661196809384705   0.0539229965380515    0.139585036774037    0.190546278232815 
74 1 -0.00230716756192351    0.172587446322382    0.825567140707562    0.649832371307971   -0.391950609854822  -0.0686549937248226 
75 1    0.169108633718338 -0.00407250072385068    0.817240098970956  -0.0495758577068629    0.216255986155932    0.285011073647339 
76 1    0.172247528051344    0.165525531411959    0.659900923371083   -0.221665196362509   0.0728217612852339   0.0869075373992253 
77 1  -0.0054694743622008    0.331550949819643    0.651646053288914    0.240146298062596    0.406749046676532    0.663918057328517 
78 1   0.0117707855509934    0.503644140644042     0.84349198375071   -0.183793151298142  -0.0114996048359318   -0.543489124507516 
79 1    0.178416617926928    0.328482525489562    0.831637971800433   -0.473926694896269   0.0966100052654895   -0.265825725886121 
80 1    0.166178258430705    0.487220515608897     0.64889957592834    0.170791631764128    0.595163699855963    0.880640425247883 
81 1   0.0115960046075543    0.668701515004159     0.66705282948999   -0.428632039436081   -0.277183781292324  0.00741399616703648 
82 1 -0.00255391920580905    0.833309777714248    0.822937224544035    0.246396781846662    -0.11028121795103    0.496036348041422 
83 1     0.17453717934427    0.660414087066101    0.830675476268766   -0.270481983578974   0.0722291899652868 -0.00578803555121469 
84 1    0.167903350121151     0.82883986626041    0.665005273566635   0.0207950125501902    0.343414698400224   0.0706129763899453 
85 1    0.347612077312874   0.0145899626313621    0.664336124996453   -0.315892174483215   -0.499706054507391   0.0478671295628737 
86 1    0.336016970201285     0.16419207789022    0.831902027854085   0.0119204072810845 -0.000109465827911312    0.245341973645479 
87 1    0.502210888371906  0.00312316584893324    0.839927440592305  -0.0860431452249284    0.157749961152177   -0.110616242715503 
88 1     0.51727967498357    0.166122405234091    0.671148412409025   -0.179199884878132    0.275044449729095   -0.196617782573194 
89 1    0.343178222706001    0.321984643124438    0.665469311372249  -0.0520930170033952    0.241149330635523  -0.0766627504649472 
90 1     0.33545119854989    0.491999456465919    0.831721175415851  -0.0461141130997637  -0.0769904625470495   -0.227126541538533 
91 1    0.507087569875353    0.324506454817197    0.836988806528552  -0.0162611785470176 -0.000594408873197401    0.189018549477803 
92 1    0.511319706278869    0.489465428078347    0.669755505056287   -0.425315241405562   0.0218159244728644    0.013167065677141 
93 1    0.329780569941477    0.673108867002725    0.665023523771424    0.386239496163205   -0.433827904733875   -0.117834641194819 
94 1    0.328767082618583    0.832586150875386    0.831571377667501    0.156536088538232    0.122784413867602    0.154951694670656 
95 1    0.490424847231111    0.660204727513701    0.827752116924216    0.197988459415237    0.220857022491726    0.186249213145063 
96 1    0.498886467473653    0.839002023672151    0.675043757551407   0.0507503617123747   -0.115309850251434   -0.222413336576901 
97 1    0.671888303200717 -0.000135619765444517    0.673286630309121   -0.363459370493903   0.0275997563605028   -0.525302910389462 
98 1    0.680051097895557    0.161525877952954    0.826678891645543   -0.427528750561862    0.360276831618626     0.83589444407063 
99 1     0.83175887106961  -0.0031227995849008    0.824930640858952     0.48556049309964    0.186535141420987    0.558718459812053 
100 1    0.835671801775788    0.176110207497231    0.675481504187815   0.0613469212277443   -0.463149788066034    -0.74362289027676 
101 1    0.684575183260336    0.334828059190954    0.669764999266135    -0.67887128927574  -0.0135729516208661    0.168654206195542 
102 1    0.665219271546334    0.495788711798468    0.842091827994409    0.144184947587847   -0.015132696208623    0.125473764312672 
103 1    0.848699121799882    0.338004048998755    0.837356393518576   -0.555547620762757    0.241087256018638   -0.184887217329355 
104 1    0.827542253605884      0.5059641561852    0.667697611298877    0.502119935393727   0.0056584127162768    0.192699629660786 
105 1    0.667259710891585    0.662192951200609    0.677351429150121   -0.298349636896417    0.256869016070072   -0.146400842982746 
106 1    0.663515180818536    0.844078816565798    0.836875841445817  -0.0537399195457925   -0.634435686370024  -0.0766162038497782 
107 1    0.830511830182786    0.666685009052799    0.833347164344218    0.247317496315756  -0.0999758777383018    0.317336157343908 
108 1    0.829989928787995    0.831962543330974    0.674711016223341  -0.0822659473110717   -0.224037651253092   -0.523442295562768 
ITEM: TIMESTEP
200
ITEM: NUMBER OF ATOMS
108
ITEM: BOX BOUNDS pp pp pp
4.5006360854378258e-03 1.2145499363914549e+01
4.5006360854378258e-03 1.2145499363914539e+01
4.5006360854378258e-03 1.2145499363914539e+01
ITEM: ATOMS id type xsu ysu zsu fx fy fz 
1 1  0.00175457849672966   0.0017523443865457  0.00788881889502591  -0.0323565754153511   -0.168565237319254   -0.356442934783299 
2 1 -0.00542100845854065    0.166137291617247    0.170470224520159  -0.0991583274796855    0.131505776157609    -0.36341049186263 
3 1    0.168735594776081 -0.00528246813360056    0.169420212524301  -0.0617779144793524  -0.0363929153321472  -0.0492414430501809 
4 1    0.162248038081771    0.168646419769857  0.00720964470497165    0.121795965380124 -0.00847368240079341   -0.202341337123781 