LAMMPS (17 Nov 2016)
units metal
dimension 3
boundary p p p
atom_style atomic
read_data structure.inp
  orthogonal box = (0 0 0) to (12.15 12.15 12.15)
  1 by 1 by 1 MPI processor grid
  reading atoms ...
  108 atoms
include potential.inp
pair_style eam/alloy
pair_coeff * * AlAg.lammps.eam Al Ag
fix 1 all npt temp 200 200 1.0 iso 0.0 0.0 1.0
variable  dumptime equal 100
dump 1 all custom ${dumptime} dump.out id type xsu ysu zsu fx fy fz
dump 1 all custom 100 dump.out id type xsu ysu zsu fx fy fz
dump_modify 1 sort id format line "%d %d %20.15g %20.15g %20.15g %20.15g %20.15g %20.15g"
thermo_style custom step temp pe etotal pxx pyy pzz vol
thermo_modify format  float %20.15g
thermo 100
velocity all create 400 92690 dist gaussian
run 10000
Neighbor list info ...
  1 neighbor list requests
  update every 1 steps, delay 10 steps, check yes
  max neighbors/atom: 2000, page size: 100000
  master list distance cutoff = 8.5
  ghost atom cutoff = 8.5
  binsize = 4.25 -> bins = 3 3 3
Memory usage per processor = 3.93753 Mbytes
Step Temp PotEng TotEng Pxx Pyy Pzz Volume 
       0                  400    -362.880399705225    -357.348065499225    -7746.97675309754    -7640.85788713911    -6375.53485120294          1793.613375 
     100     216.048595053099    -360.339036971253    -357.350904389827    0.343864357791086     346.006097949899     1602.42012505504     1780.50476064653 
     200     240.542575021622    -360.680427026747    -357.353522237269    -1031.47493661363    -3002.18073676996     -2741.0060062625     1789.62995665228 
     300     211.559833855338    -360.287901639531    -357.361852375897     1617.10939266257     1554.96799715202     2092.92700075959     1780.16563209709 
     400     216.530543583961    -360.362119112425    -357.367320780142    -1832.17784283811    -3120.68484160742    -2036.49444573067     1789.81874166948 
     500     205.526352262408    -360.215623030359     -357.37302185822     1011.66271920372     1478.83902207963     2261.25517644736     1776.58325282212 
     600     214.232416478423    -360.345398977518    -357.382385663224    -2375.31976013985     -4066.7490371916     -3176.2062522312     1793.26663947235 
     700     196.524584188592    -360.109112950363    -357.391013751796     4828.86137994767     2491.81794965399     4953.97174253903     1772.01489888804 
     800     184.138745891045     -359.94547602994    -357.398683323583    -2737.13336511477    -5594.16559331127    -3172.86524156259     1796.72896915611 
     900     182.843156706485    -359.934757530575    -357.405883905124     6648.09241417842     5991.54759568384      6114.0793634791      1770.6549011385 
    1000     201.340269035702    -360.204324716036    -357.419620572458      -4341.125734305    -6360.80284400593    -4329.61928324018      1798.3245381357 
    1100     184.784590987584    -359.989824861805    -357.434099578149     5360.68781229292     3746.18288157754     5629.48568564656     1772.52445476557 
    1200      211.16531079237    -360.375347180605    -357.454754500562    -5339.94797356934    -5474.52625147387    -4200.80764162424     1797.09681742883 
    1300     206.060850436791    -360.328199816585    -357.478206088113     2922.08005402764     3578.11488224779     4348.69207066086     1774.22285070378 
    1400     179.872028124952    -359.993972387857    -357.506191953111    -3377.32550034141    -2805.20661076496    -1915.71012849643     1793.78419207591 
    1500     190.079760581359    -360.167801286047    -357.538839382715     3775.29650112536     3324.14852023836      3202.0203545138     1775.05257524716 
    1600     219.331523371957    -360.607974092575    -357.574435869563    -3227.26190837436    -1760.53872268222    -2653.68986541894     1789.07826047457 
    1700     173.400141076689    -360.015838140936    -357.617569311426     397.910596861799     2696.67878128125     2449.82752331825     1779.61223714665 
    1800     226.336020303848    -360.794087866341    -357.663671598398    -3449.37475795726    -2815.31089793428    -1935.44484885391     1787.17908051586 
    1900     192.316641773018    -360.373606863141    -357.713707023981    -277.793090872782     837.077148764476     1922.55055256176     1780.46823291335 
    2000     169.150237226668    -360.108139517217    -357.768650408812    -1290.63913314772     1778.24543440105     748.516114626035     1782.42096596096 
    2100     167.882302986659    -360.143893055853    -357.821940537365     322.973949442356    -72.6999971670705     265.791303109233     1783.33859227442 
    2200     182.639343564726    -360.398429007732    -357.872374288321     1676.59299149598     2173.23387829131     1555.89036118928     1778.55673691115 
    2300     183.743219050373    -360.462636409254    -357.921314169572    -2751.03777216935    -1226.66545230374    -1764.03302918442     1786.81681073103 
    2400     206.271022187319    -360.818957434158    -357.966056854774     -688.26364578275     2650.32339130386     926.540535130156     1775.76588481727 
    2500     185.574627423855     -360.57219743324    -358.005545285584    -1254.62949309276    -1522.81775612912    -4113.34780102323      1787.2715029671 
    2600     196.061527065465    -360.749716847341    -358.038022115679     1161.34650382108     4153.20391747119     3217.80114390908     1771.10336959559 
    2700     155.384499906318    -360.214868440738    -358.065770980953    -3214.84891560797    -3430.63170680154    -3939.26502622961     1791.70463431627 
    2800     191.959592988235    -360.742410333552    -358.087448777405     4772.04059294866      4060.6922517623     4017.45995528434     1766.27856923637 
    2900      166.75544492561    -360.412090608828    -358.105723478831    -3048.24288591238     -4258.0928755045    -4904.69936415928     1792.08851715028 
    3000     191.706142756033     -360.77468780403    -358.123231676356     2883.15212238004     3373.39402678241     3197.16093051939     1768.92867204707 
    3100     174.409964542735    -360.547820590681    -358.135585058914    -1594.64860873407    -3949.97212858174      -3798.180233318     1789.58813994665 
    3200     193.616642746436     -360.81690976425    -358.139029825458     3879.84504109059     1358.49456722789     1985.03415448996     1772.96917834185 
    3300     179.012032646979    -360.613208383762    -358.137322405016    -543.493252534879    -1382.28717031929    -2756.53711379774     1784.49665391395 
    3400     176.423947839021    -360.568983363987    -358.128892760519     211.019085643088     -686.37455019589     303.209142645911     1780.24594384884 
    3500     179.718100270443    -360.584137319451    -358.098485835542     1918.84009511989      92.127122413726     1891.15568105869     1777.68653794261 
    3600      172.69163441484    -360.462245188023    -358.073775597614    -1057.47870493213    -3190.33118159079    -2072.59846267768     1787.09140347783 
    3700      174.98999225938    -360.456824502274    -358.036566702563     2572.36742945938      233.00773793961     4134.26177978962      1774.5396275781 
    3800     169.056714123985    -360.330739138813    -357.992543533058    -1445.74861236116    -5415.23467800648    -2104.30259387487     1789.40147116445 
    3900      190.25351314137    -360.571491425889     -357.94012637948      5191.6170584761     1592.35626259185     4661.07407898077     1770.29973257764 
    4000      182.75000386419    -360.418620856324    -357.891035612513    -2594.74624783384    -5987.60883617664    -4358.01300913055     1791.39550870182 
    4100     204.841174233642    -360.669174347286    -357.836049759761     3756.55224555253     2668.86211709413     5025.79589836103     1771.57134216158 
    4200     201.848051530358     -360.57502423375    -357.783297034011    -2164.69430306851    -4537.97853942874    -5908.43211042399     1791.29761358696 
    4300     199.954142549496    -360.499333866384    -357.733801010239     3425.01911073249     1979.89724773906     2583.13540783983     1774.57403713521 
    4400     195.548177389583    -360.387148784094    -357.682554107361    -451.203970537171    -2756.22180005747    -1423.05238671466     1784.69565588834 
    4500     189.417320576487    -360.255825861158    -357.636026056572     795.441327689999     35.0772539293557     659.300507399043     1781.09528231402 
    4600     206.226814007967     -360.44351732827    -357.591228184944     1482.68848957463    -539.792336091162      211.66181719373        1778.83342773 
    4700     192.021499459445    -360.214315622249    -357.558497847882    -1750.60682739529    -3021.09969557676    -1757.62687573612     1788.34521937473 
    4800     196.942997425317    -360.251061029561    -357.527174826341     6043.70711020955     3946.78708925209      2684.2140614876     1770.71525657027 
    4900     218.672210475523    -360.519819899533    -357.495400524745     -5848.5866512623     -7552.6684781083    -4516.93387213363     1797.64536952324 
    5000     205.120091070874    -360.309882134239    -357.472899893816     5483.51017121239     6020.76200334345     5336.62525726387     1765.43161220804 
    5100     209.848281340179    -360.359063195641    -357.456686133319    -8220.57969910647    -4712.46984062158    -4857.91588081815     1798.74960447945 
    5200     212.875954791851     -360.39126173678    -357.447009420956      7714.9903547801     5265.27472371027     4341.65786864192     1765.07822506546 
    5300     191.189367862123    -360.086850633314    -357.442541934196    -7669.61378251337    -4842.04098778915    -4524.43560193426     1798.92017645073 
    5400      208.69707710597    -360.332551850364     -357.44609690445     4014.93153247105      4054.2804250872     4760.58325754539     1768.86438447625 
    5500     200.568176849444    -360.213843264397    -357.439817800849    -2806.28686132585    -3164.41748181121    -3727.20963806516     1793.90221284971 
    5600     208.860596674531    -360.325313496584    -357.436596938414     3627.89366764826     1565.02869752675     1821.28904881759     1773.81882019412 
    5700     193.307092329491    -360.105975636472     -357.43237703858    -2444.81303743569    -1762.78889916322    -745.064727036155     1789.26982966164 
    5800     172.591844334268    -359.816609472038     -357.42952006182     2848.08291995514     3441.45387079117     2229.22652137017      1776.3304875536 
    5900     217.699895351436    -360.439127799801    -357.428156355563    -1417.33874648813    -25.3496701959133     10.3944222597537     1784.05062381376 
    6000     217.467552120151    -360.434167941935    -357.426409998711    -1099.83027704783    -2422.94117318307    -811.421359588263     1782.01568776932 
    6100     195.889531649703    -360.135886960863    -357.426571069506    -525.523363953047     1076.73037822537     1309.52462615752     1780.18706220884 
    6200     207.199500936068    -360.293753503329    -357.428011287092    -1068.67980727973    -509.871986043577    -259.443820032134     1782.59719587533 
    6300     190.434016926218    -360.065293936306    -357.431432371739      536.03698976307     1305.64905420284     1594.55491527033     1779.98152348306 
    6400     209.011213343805    -360.326018594041    -357.435218881493    -2299.21684400019    -533.925206090775     598.539299219849      1782.2474716431 
    6500     194.614941326801    -360.131537456017    -357.439850213765     1081.62388898044     547.356655714258    -402.065773893236     1782.92328828783 
    6600     202.118316139428    -360.240454498767    -357.444989313674     564.281238428344     131.886925339426      -366.4217228919     1781.84390462938 
    6700     213.468131802289    -360.405412311222     -357.45296969257    -815.381803693558    -1797.26079866905    -421.733220919493     1783.82222129429 
    6800     221.419940648225    -360.522505605876     -357.46008282703    -617.166096311475    -1011.25236449731     632.517942508603     1782.33218411797 
    6900     197.761004355665     -360.20348730553    -357.468287383006    -1409.93821582692    -1143.45980020417     2135.35928452391      1784.9945873038 
    7000     202.139757269532     -360.27435898369    -357.478597249853    -216.761277542116     535.023266479364     2959.46617207641     1778.92784659796 
    7100     213.774096356825    -360.446722088794    -357.490047724715     -1949.8267682529    -3111.18079801279    -1762.68756708529     1788.21504237909 
    7200     206.799126826732    -360.360285152513    -357.500080444727     73.6489849095138     1998.13049848751     3784.97374590613     1776.15440114815 
    7300     185.714152463979    -360.080298615256     -357.51171671972    -3237.44553463558     -865.83816711774    -795.594008658407     1788.04234795957 
    7400     202.461625629185    -360.324607182439    -357.524393740262     270.861615268944     3245.11252384106     2962.48671038165     1775.83710951586 
    7500     187.548830887186    -360.133367254485    -357.539410223454    -2005.42155900733    -1836.81074523358    -599.394360386633      1787.0497031798 
    7600     200.910033042883    -360.334748232587    -357.555994612258    -190.981444001915     2508.73062001366     1928.88490440043     1776.50327355164 
    7700     195.127509228625    -360.271851072167    -357.573074587574    -1220.17143712975    -1521.36821536677    -1364.04899312468     1784.77099047166 
    7800      234.17345444982    -360.830680224995     -357.59186569452    -515.499718788437       2142.044572475    -102.233989814366     1777.17748933097 
    7900     191.588208444175    -360.261786122437    -357.611961124832    -2165.51878817737    -2343.16866028902    -1792.01272314446     1785.68565782908 
    8000     182.499881653049    -360.160622167654    -357.636496323004     992.504082881389     3956.85442314263     3217.52686504199     1775.90342019654 
    8100     188.997278759222    -360.274277913244    -357.660287637943    -598.869515101192     486.166401251185    -3481.19699724005     1782.98921887108 
    8200     182.075864708563    -360.204262826707    -357.686001490671     436.111227101525      1394.0484030983     1412.60741313545     1779.79535487419 
    8300     186.740733767191    -360.296932393866    -357.714152021181    -629.749309360089      718.38600326994     1855.38885135661     1778.03846761666 
    8400     185.311883390322    -360.299525778374    -357.736507600227    -1201.81915144103     41.5590514435144    -1073.89615837215     1783.96731615431 
    8500     195.056599916112     -360.45919093492    -357.761395185365     2007.76498055307     2151.65438973487     821.393219242882     1774.76535709077 
    8600     194.635498359502     -360.47974804696     -357.78777648377    -3360.05423497973    -1920.08588148162    -3636.90699981654     1789.17384153105 
    8700     196.369106790842    -360.528468711805    -357.812519895553     3882.03822942107      2813.5558676244     2171.67215340642     1771.75556264782 
    8800     182.088155771572    -360.355770478386     -357.83733914668    -3246.06584700341    -2923.85353272734    -2799.88671752533     1789.75242394417 
    8900     188.352149564769    -360.465364002512    -357.860296402985     2056.25274352607     2096.24461440508      2716.2006300137     1774.00223796418 
    9000     176.925733276223    -360.331511733414      -357.8844810181    -1739.40119385428    -2021.69084672911     -2006.1269385834     1789.40093924096 
    9100     191.715059414406    -360.558840694846    -357.907261242337     3021.55384279311     1629.93529107928     3304.81757265727     1771.99809357633 
    9200     193.699023580986    -360.606363753077    -357.927344418512    -4203.99319558678    -4117.97227751514    -2676.01079778931     1791.53766365599 
    9300     189.826636964347    -360.572348916998    -357.946887924778     2936.27709599448      2867.9995873187     3666.59282774902     1771.28801887216 
    9400     184.257207149549    -360.511720282515    -357.963289157976    -1791.44326652429    -2452.62763590541    -1610.43415812555     1787.99605907556 
    9500     159.514056524466    -360.183453523301    -357.977240845181     1768.86352185706     3082.50496486399     3501.34722397374     1774.40854277318 
    9600     181.521253133657    -360.498441484512    -357.987850889944    -2300.35833959452    -1232.57857527789    -720.631258148233     1783.85924630087 
    9700     200.561691665555    -360.768960849796     -357.99502508176    -1336.12672985193     1079.46389215465     -967.51451586101     1778.15869000111 
    9800      181.20859335623    -360.503457568268    -357.997191319653    -798.120497548965     1357.82230433316     1432.75043260371     1778.62580002253 
    9900     173.103540833853    -360.388410948955    -357.994244348618    -1825.71848309642      131.21771904682    -203.662072969409     1780.29381292333 
   10000     181.866355854381    -360.501723398025     -357.98635974449     553.860533234247      2250.7309014505     2803.82545782307     1776.57412294948 
Loop time of 2.82347 on 1 procs for 10000 steps with 108 atoms

Performance: 306.006 ns/day, 0.078 hours/ns, 3541.739 timesteps/s
98.9% CPU use with 1 MPI tasks x no OpenMP threads

MPI task timing breakdown:
Section |  min time  |  avg time  |  max time  |%varavg| %total
---------------------------------------------------------------
Pair    | 2.6148     | 2.6148     | 2.6148     |   0.0 | 92.61
Neigh   | 0          | 0          | 0          |   0.0 |  0.00
Comm    | 0.069768   | 0.069768   | 0.069768   |   0.0 |  2.47
Output  | 0.059073   | 0.059073   | 0.059073   |   0.0 |  2.09
Modify  | 0.061609   | 0.061609   | 0.061609   |   0.0 |  2.18
Other   |            | 0.01826    |            |       |  0.65

Nlocal:    108 ave 108 max 108 min
Histogram: 1 0 0 0 0 0 0 0 0 0
Nghost:    1580 ave 1580 max 1580 min
Histogram: 1 0 0 0 0 0 0 0 0 0
Neighs:    7560 ave 7560 max 7560 min
Histogram: 1 0 0 0 0 0 0 0 0 0

Total # of neighbors = 7560
Ave neighs/atom = 70
Neighbor list builds = 0
Dangerous builds = 0
Total wall time: 0:00:02
