ITEM: TIMESTEP
0
ITEM: NUMBER OF ATOMS
192
ITEM: BOX BOUNDS pp pp pp
0.0000000000000000e+00 9.5711999999999993e+00
0.0000000000000000e+00 1.1051869792935490e+01
0.0000000000000000e+00 1.8096974824551619e+01
ITEM: ATOMS id type xsu ysu zsu fx fy fz 
1 1                0.125   0.0933311755680961    0.125000008119059 1.49213974509621e-13     93.2320013825845 -0.00246769698289429 
2 1                0.125    0.343331135010772    0.125000008119059 1.63424829224823e-13     93.2303426407506  -0.0024674460620604 
3 1                0.125    0.593331184935892    0.125000008119059 1.70530256582424e-13     93.2303444888416 -0.00246764981738945 
4 1                0.125    0.843331144378681    0.125000008119059 1.56319401867222e-13      93.231633007376 -0.00246759631001492 
5 1                0.375   0.0933311755680961    0.125000008119059 3.14415160573844e-13     93.2320013825844 -0.00246769698289223 
6 1                0.375    0.343331135010772    0.125000008119059 2.45137243837235e-13     93.2303426407505 -0.00246744606205229 
7 1                0.375    0.593331184935892    0.125000008119059 2.33590924381133e-13     93.2303444888415 -0.00246764981738917 
8 1                0.375    0.843331144378681    0.125000008119059 2.29150032282632e-13      93.231633007376 -0.00246759631001547 
9 1                0.625   0.0933311755680961    0.125000008119059 -9.54791801177635e-15     93.2320013825846 -0.00246769698288872 
10 1                0.625    0.343331135010772    0.125000008119059 -1.0991207943789e-14     93.2303426407507 -0.00246744606205047 
11 1                0.625    0.593331184935892    0.125000008119059 -1.60982338570648e-15     93.2303444888417 -0.00246764981738914 
12 1                0.625    0.843331144378681    0.125000008119059 -4.02455846426619e-15     93.2316330073761 -0.00246759631001526 
13 1                0.875   0.0933311755680961    0.125000008119059 -5.48039044701021e-13     93.2320013825842 -0.00246769698288867 
14 1                0.875    0.343331135010772    0.125000008119059 -4.88427007172554e-13     93.2303426407504 -0.00246744606205523 
15 1                0.875    0.593331184935892    0.125000008119059 -4.89142580606394e-13     93.2303444888414  -0.0024676498173905 
16 1                0.875    0.843331144378681    0.125000008119059 -4.98922951563952e-13     93.2316330073757 -0.00246759631001286 
17 1                0.125   0.0933311755680961    0.375000024357291 1.63424829224823e-13     93.2320013626079 -0.00268898012297299 
18 1                0.125    0.343331135010772    0.375000024357291 1.70530256582424e-13     93.2303427259006 -0.00268911059423025 
19 1                0.125    0.593331184935892    0.375000024357291 1.63424829224823e-13     93.2303445321863 -0.00268906218263064 
20 1                0.125    0.843331144378681    0.375000024357291 1.77635683940025e-13     93.2316329502729 -0.00268911810223926 
21 1                0.375   0.0933311755680961    0.375000024357291 3.10862446895044e-13     93.2320013626078 -0.00268898012297445 
22 1                0.375    0.343331135010772    0.375000024357291 2.40696351738734e-13     93.2303427259005 -0.00268911059423388 
23 1                0.375    0.593331184935892    0.375000024357291 2.38031816479634e-13     93.2303445321862 -0.00268906218262906 
24 1                0.375    0.843331144378681    0.375000024357291 2.30038210702332e-13     93.2316329502729 -0.00268911810223865 
25 1                0.625   0.0933311755680961    0.375000024357291 -8.71525074330748e-15      93.232001362608 -0.00268898012297243 
26 1                0.625    0.343331135010772    0.375000024357291 -1.18793863634892e-14     93.2303427259007 -0.00268911059423581 
27 1                0.625    0.593331184935892    0.375000024357291 -5.71764857681956e-15     93.2303445321863 -0.00268906218262955 
28 1                0.625    0.843331144378681    0.375000024357291 -4.21884749357559e-15      93.231632950273 -0.00268911810223837 
29 1                0.875   0.0933311755680961    0.375000024357291 -5.68845318071887e-13     93.2320013626076 -0.00268898012296994 
30 1                0.875    0.343331135010772    0.375000024357291 -4.86585598202804e-13     93.2303427259004 -0.00268911059423373 
31 1                0.875    0.593331184935892    0.375000024357291 -4.90632708072258e-13      93.230344532186 -0.00268906218262612 
32 1                0.875    0.843331144378681    0.375000024357291 -5.00635123634741e-13     93.2316329502726 -0.00268911810223684 
33 1                0.125   0.0933311755680961    0.624999985337581 1.35003119794419e-13     93.2320013626079  0.00268897778907595 
34 1                0.125    0.343331135010772    0.624999985337581 1.63424829224823e-13     93.2303427259006  0.00268910826034308 
35 1                0.125    0.593331184935892    0.624999985337581 1.56319401867222e-13     93.2303445321863  0.00268905984872347 
36 1                0.125    0.843331144378681    0.624999985337581 1.63424829224823e-13     93.2316329502729  0.00268911576833375 
37 1                0.375   0.0933311755680961    0.624999985337581 3.10862446895044e-13     93.2320013626078  0.00268897778907651 
38 1                0.375    0.343331135010772    0.624999985337581 2.46025422256935e-13     93.2303427259005  0.00268910826035695 
39 1                0.375    0.593331184935892    0.624999985337581 2.38919994899334e-13     93.2303445321862   0.0026890598487227 
40 1                0.375    0.843331144378681    0.624999985337581 2.30926389122033e-13     93.2316329502728  0.00268911576833242 
41 1                0.625   0.0933311755680961    0.624999985337581 -8.43769498715119e-15      93.232001362608   0.0026889777890761 
42 1                0.625    0.343331135010772    0.624999985337581 -1.47104550762833e-14     93.2303427259007  0.00268910826036096 
43 1                0.625    0.593331184935892    0.624999985337581 -5.71764857681956e-15     93.2303445321864  0.00268905984872658 
44 1                0.625    0.843331144378681    0.624999985337581 -5.55111512312578e-15      93.231632950273  0.00268911576833717 
45 1                0.875   0.0933311755680961    0.624999985337581 -5.50360104711878e-13     93.2320013626076  0.00268897778907948 
46 1                0.875    0.343331135010772    0.624999985337581 -4.86752131656498e-13     93.2303427259004  0.00268910826035503 
47 1                0.875    0.593331184935892    0.624999985337581 -4.85275014616704e-13     93.2303445321861  0.00268905984873105 
48 1                0.875    0.843331144378681    0.624999985337581 -4.9409434876857e-13     93.2316329502726  0.00268911576833347 
49 1                0.125   0.0933311755680961    0.875000001575813  1.4210854715202e-13     93.2320013825845  0.00246769931677582 
50 1                0.125    0.343331135010772    0.875000001575813 1.56319401867222e-13     93.2303426407506  0.00246744839594415 
51 1                0.125    0.593331184935892    0.875000001575813 1.63424829224823e-13     93.2303444888416  0.00246765215129452 
52 1                0.125    0.843331144378681    0.875000001575813 1.63424829224823e-13      93.231633007376  0.00246759864392221 
53 1                0.375   0.0933311755680961    0.875000001575813 3.11750625314744e-13     93.2320013825843  0.00246769931677993 
54 1                0.375    0.343331135010772    0.875000001575813 2.46025422256935e-13     93.2303426407506  0.00246744839593604 
55 1                0.375    0.593331184935892    0.875000001575813 2.31814567541733e-13     93.2303444888416  0.00246765215128919 
56 1                0.375    0.843331144378681    0.875000001575813 2.29150032282632e-13     93.2316330073759  0.00246759864392099 
57 1                0.625   0.0933311755680961    0.875000001575813 -7.21644966006352e-15     93.2320013825846  0.00246769931678117 
58 1                0.625    0.343331135010772    0.875000001575813 -1.23789867245705e-14     93.2303426407507  0.00246744839593363 
59 1                0.625    0.593331184935892    0.875000001575813 -2.94209101525666e-15     93.2303444888417  0.00246765215128943 
60 1                0.625    0.843331144378681    0.875000001575813 -4.08006961549745e-15     93.2316330073761  0.00246759864392193 
61 1                0.875   0.0933311755680961    0.875000001575813 -5.5187278358293e-13     93.2320013825842  0.00246769931677921 
62 1                0.875    0.343331135010772    0.875000001575813 -4.89374166190437e-13     93.2303426407504  0.00246744839594222 
63 1                0.875    0.593331184935892    0.875000001575813 -4.8720402712199e-13     93.2303444888414  0.00246765215129436 
64 1                0.875    0.843331144378681    0.875000001575813 -5.00759156363273e-13     93.2316330073758   0.0024675986439225 
65 1    0.198136074891295    0.156668874357024    0.125000008119059    -72.3972283588514    -46.6149110316751  -0.0024675138053174 
66 1    0.198136074891295    0.406668833799813    0.125000008119059      -72.39722974575    -46.6165591060878 -0.00246755207207938 
67 1    0.198136074891295    0.656668883724933    0.125000008119059    -72.3972283100287    -46.6159724686723 -0.00246747768213873 
68 1    0.198136074891295    0.906668843167608    0.125000008119059    -72.3972296011848    -46.6147181533414 -0.00246759235770955 
69 1    0.448136074891295    0.156668874357024    0.125000008119059    -72.3972283588514    -46.6149110316751 -0.00246751380531973 
70 1    0.448136074891295    0.406668833799813    0.125000008119059      -72.39722974575    -46.6165591060878 -0.00246755207208066 
71 1    0.448136074891295    0.656668883724933    0.125000008119059    -72.3972283100287    -46.6159724686723 -0.00246747768213615 
72 1    0.448136074891295    0.906668843167608    0.125000008119059    -72.3972296011848    -46.6147181533414  -0.0024675923577108 
73 1    0.698136074891295    0.156668874357024    0.125000008119059    -72.3972283588515     -46.614911031675  -0.0024675138053201 
74 1    0.698136074891295    0.406668833799813    0.125000008119059      -72.39722974575    -46.6165591060878  -0.0024675520720844 
75 1    0.698136074891295    0.656668883724933    0.125000008119059    -72.3972283100288    -46.6159724686723 -0.00246747768213675 
76 1    0.698136074891295    0.906668843167608    0.125000008119059    -72.3972296011849    -46.6147181533414 -0.00246759235770853 
77 1    0.948136074891295    0.156668874357024    0.125000008119059     -72.397228358851    -46.6149110316746  -0.0024675138053234 
78 1    0.948136074891295    0.406668833799813    0.125000008119059    -72.3972297457496    -46.6165591060874 -0.00246755207208205 
79 1    0.948136074891295    0.656668883724933    0.125000008119059    -72.3972283100284    -46.6159724686719 -0.00246747768213984 
80 1    0.948136074891295    0.906668843167608    0.125000008119059    -72.3972296011845     -46.614718153341 -0.00246759235770977 
81 1    0.198136074891295    0.156668874357024    0.375000024357291    -72.3972283579791      -46.61491102839 -0.00268916080275026 
82 1    0.198136074891295    0.406668833799813    0.375000024357291    -72.3972297483745    -46.6165590811427 -0.00268913222550103 
83 1    0.198136074891295    0.656668883724933    0.375000024357291    -72.3972283213595    -46.6159724681876 -0.00268918561804264 
84 1    0.198136074891295    0.906668843167608    0.375000024357291    -72.3972296003126    -46.6147182077638 -0.00268912175044295 
85 1    0.448136074891295    0.156668874357024    0.375000024357291    -72.3972283579791      -46.61491102839 -0.00268916080275036 
86 1    0.448136074891295    0.406668833799813    0.375000024357291    -72.3972297483745    -46.6165590811427 -0.00268913222550238 
87 1    0.448136074891295    0.656668883724933    0.375000024357291    -72.3972283213595    -46.6159724681876 -0.00268918561804436 
88 1    0.448136074891295    0.906668843167608    0.375000024357291    -72.3972296003126    -46.6147182077638 -0.00268912175043984 
89 1    0.698136074891295    0.156668874357024    0.375000024357291    -72.3972283579791      -46.61491102839 -0.00268916080275074 
90 1    0.698136074891295    0.406668833799813    0.375000024357291    -72.3972297483745    -46.6165590811427 -0.00268913222550559 
91 1    0.698136074891295    0.656668883724933    0.375000024357291    -72.3972283213595    -46.6159724681876 -0.00268918561804496 
92 1    0.698136074891295    0.906668843167608    0.375000024357291    -72.3972296003127    -46.6147182077637 -0.00268912175044257 
93 1    0.948136074891295    0.156668874357024    0.375000024357291    -72.3972283579787    -46.6149110283896 -0.00268916080275039 
94 1    0.948136074891295    0.406668833799813    0.375000024357291    -72.3972297483741    -46.6165590811423 -0.00268913222549783 
95 1    0.948136074891295    0.656668883724933    0.375000024357291    -72.3972283213591    -46.6159724681873 -0.00268918561803932 
96 1    0.948136074891295    0.906668843167608    0.375000024357291    -72.3972296003122    -46.6147182077634 -0.00268912175044189 
97 1    0.198136074891295    0.156668874357024    0.624999985337581     -72.397228357979      -46.61491102839  0.00268915846886641 
98 1    0.198136074891295    0.406668833799813    0.624999985337581    -72.3972297483744    -46.6165590811427  0.00268912989161207 
99 1    0.198136074891295    0.656668883724933    0.624999985337581    -72.3972283213594    -46.6159724681876  0.00268918328413581 
100 1    0.198136074891295    0.906668843167608    0.624999985337581    -72.3972296003125    -46.6147182077638  0.00268911941654104 
101 1    0.448136074891295    0.156668874357024    0.624999985337581     -72.397228357979      -46.61491102839    0.002689158468864 
102 1    0.448136074891295    0.406668833799813    0.624999985337581    -72.3972297483745    -46.6165590811427  0.00268912989162329 
103 1    0.448136074891295    0.656668883724933    0.624999985337581    -72.3972283213594    -46.6159724681876  0.00268918328415085 
104 1    0.448136074891295    0.906668843167608    0.624999985337581    -72.3972296003126    -46.6147182077638  0.00268911941654479 
105 1    0.698136074891295    0.156668874357024    0.624999985337581    -72.3972283579791      -46.61491102839  0.00268915846886544 
106 1    0.698136074891295    0.406668833799813    0.624999985337581    -72.3972297483745    -46.6165590811427  0.00268912989161872 
107 1    0.698136074891295    0.656668883724933    0.624999985337581    -72.3972283213595    -46.6159724681876  0.00268918328414926 
108 1    0.698136074891295    0.906668843167608    0.624999985337581    -72.3972296003126    -46.6147182077637  0.00268911941654434 
109 1    0.948136074891295    0.156668874357024    0.624999985337581    -72.3972283579787    -46.6149110283896  0.00268915846886608 
110 1    0.948136074891295    0.406668833799813    0.624999985337581    -72.3972297483741    -46.6165590811423  0.00268912989161543 
111 1    0.948136074891295    0.656668883724933    0.624999985337581    -72.3972283213591    -46.6159724681873  0.00268918328415019 
112 1    0.948136074891295    0.906668843167608    0.624999985337581    -72.3972296003122    -46.6147182077634  0.00268911941654252 
113 1    0.198136074891295    0.156668874357024    0.875000001575813    -72.3972283588514    -46.6149110316751  0.00246751613920848 
114 1    0.198136074891295    0.406668833799813    0.875000001575813    -72.3972297457499    -46.6165591060878  0.00246755440597046 
115 1    0.198136074891295    0.656668883724933    0.875000001575813    -72.3972283100286    -46.6159724686723  0.00246748001605113 
116 1    0.198136074891295    0.906668843167608    0.875000001575813    -72.3972296011849    -46.6147181533414  0.00246759469161217 
117 1    0.448136074891295    0.156668874357024    0.875000001575813    -72.3972283588513    -46.6149110316751  0.00246751613921115 
118 1    0.448136074891295    0.406668833799813    0.875000001575813    -72.3972297457499    -46.6165591060878  0.00246755440596444 
119 1    0.448136074891295    0.656668883724933    0.875000001575813    -72.3972283100287    -46.6159724686723  0.00246748001605118 
120 1    0.448136074891295    0.906668843167608    0.875000001575813    -72.3972296011849    -46.6147181533414  0.00246759469161506 
121 1    0.698136074891295    0.156668874357024    0.875000001575813    -72.3972283588514    -46.6149110316751  0.00246751613921227 
122 1    0.698136074891295    0.406668833799813    0.875000001575813    -72.3972297457499    -46.6165591060878  0.00246755440596818 
123 1    0.698136074891295    0.656668883724933    0.875000001575813    -72.3972283100287    -46.6159724686723  0.00246748001605107 
124 1    0.698136074891295    0.906668843167608    0.875000001575813     -72.397229601185    -46.6147181533414   0.0024675946916157 
125 1    0.948136074891295    0.156668874357024    0.875000001575813     -72.397228358851    -46.6149110316746   0.0024675161392036 
126 1    0.948136074891295    0.406668833799813    0.875000001575813    -72.3972297457496    -46.6165591060874  0.00246755440597379 
127 1    0.948136074891295    0.656668883724933    0.875000001575813    -72.3972283100283    -46.6159724686719  0.00246748001605246 
128 1    0.948136074891295    0.906668843167608    0.875000001575813    -72.3972296011845     -46.614718153341  0.00246759469160907 
129 1   0.0518639251087052    0.156668874357024    0.125000008119059     72.3972283588514    -46.6149110316749  -0.0024675138053234 
130 1   0.0518639251087052    0.406668833799813    0.125000008119059       72.39722974575    -46.6165591060876 -0.00246755207207716 
131 1   0.0518639251087052    0.656668883724933    0.125000008119059     72.3972283100287    -46.6159724686722 -0.00246747768213407 
132 1   0.0518639251087052    0.906668843167608    0.125000008119059     72.3972296011849    -46.6147181533413  -0.0024675923577071 
133 1    0.301863925108705    0.156668874357024    0.125000008119059     72.3972283588511    -46.6149110316748 -0.00246751380531962 
134 1    0.301863925108705    0.406668833799813    0.125000008119059     72.3972297457497    -46.6165591060876 -0.00246755207207572 
135 1    0.301863925108705    0.656668883724933    0.125000008119059     72.3972283100285    -46.6159724686721  -0.0024674776821334 
136 1    0.301863925108705    0.906668843167608    0.125000008119059     72.3972296011846    -46.6147181533412 -0.00246759235771055 
137 1    0.551863925108705    0.156668874357024    0.125000008119059     72.3972283588515    -46.6149110316751 -0.00246751380532235 
138 1    0.551863925108705    0.406668833799813    0.125000008119059       72.39722974575    -46.6165591060878 -0.00246755207207358 
139 1    0.551863925108705    0.656668883724933    0.125000008119059     72.3972283100288    -46.6159724686723 -0.00246747768213261 
140 1    0.551863925108705    0.906668843167608    0.125000008119059     72.3972296011849    -46.6147181533414 -0.00246759235770597 
141 1    0.801863925108705    0.156668874357024    0.125000008119059     72.3972283588514    -46.6149110316751 -0.00246751380532273 
142 1    0.801863925108705    0.406668833799813    0.125000008119059       72.39722974575    -46.6165591060878 -0.00246755207207675 
143 1    0.801863925108705    0.656668883724933    0.125000008119059     72.3972283100287    -46.6159724686723 -0.00246747768213699 
144 1    0.801863925108705    0.906668843167608    0.125000008119059     72.3972296011849    -46.6147181533414 -0.00246759235770755 
145 1   0.0518639251087052    0.156668874357024    0.375000024357291     72.3972283579791    -46.6149110283899 -0.00268916080275014 
146 1   0.0518639251087052    0.406668833799813    0.375000024357291     72.3972297483745    -46.6165590811425 -0.00268913222550432 
147 1   0.0518639251087052    0.656668883724933    0.375000024357291     72.3972283213595    -46.6159724681875 -0.00268918561804345 
148 1   0.0518639251087052    0.906668843167608    0.375000024357291     72.3972296003126    -46.6147182077636 -0.00268912175044345 
149 1    0.301863925108705    0.156668874357024    0.375000024357291     72.3972283579788    -46.6149110283898 -0.00268916080274985 
150 1    0.301863925108705    0.406668833799813    0.375000024357291     72.3972297483742    -46.6165590811425 -0.00268913222550262 
151 1    0.301863925108705    0.656668883724933    0.375000024357291     72.3972283213592    -46.6159724681874 -0.00268918561804317 
152 1    0.301863925108705    0.906668843167608    0.375000024357291     72.3972296003124    -46.6147182077636 -0.00268912175044547 
153 1    0.551863925108705    0.156668874357024    0.375000024357291     72.3972283579792      -46.61491102839  -0.0026891608027497 
154 1    0.551863925108705    0.406668833799813    0.375000024357291     72.3972297483746    -46.6165590811427 -0.00268913222550114 
155 1    0.551863925108705    0.656668883724933    0.375000024357291     72.3972283213596    -46.6159724681876 -0.00268918561803992 
156 1    0.551863925108705    0.906668843167608    0.375000024357291     72.3972296003127    -46.6147182077637 -0.00268912175044287 
157 1    0.801863925108705    0.156668874357024    0.375000024357291     72.3972283579791      -46.61491102839 -0.00268916080274876 
158 1    0.801863925108705    0.406668833799813    0.375000024357291     72.3972297483745    -46.6165590811427 -0.00268913222550064 
159 1    0.801863925108705    0.656668883724933    0.375000024357291     72.3972283213595    -46.6159724681877 -0.00268918561804125 
160 1    0.801863925108705    0.906668843167608    0.375000024357291     72.3972296003126    -46.6147182077638  -0.0026891217504428 
161 1   0.0518639251087052    0.156668874357024    0.624999985337581     72.3972283579791    -46.6149110283899   0.0026891584688653 
162 1   0.0518639251087052    0.406668833799813    0.624999985337581     72.3972297483745    -46.6165590811425  0.00268912989161585 
163 1   0.0518639251087052    0.656668883724933    0.624999985337581     72.3972283213594    -46.6159724681875  0.00268918328413825 
164 1   0.0518639251087052    0.906668843167608    0.624999985337581     72.3972296003126    -46.6147182077636   0.0026891194165426 
165 1    0.301863925108705    0.156668874357024    0.624999985337581     72.3972283579788    -46.6149110283898  0.00268915846886508 
166 1    0.301863925108705    0.406668833799813    0.624999985337581     72.3972297483742    -46.6165590811425   0.0026891298916133 
167 1    0.301863925108705    0.656668883724933    0.624999985337581     72.3972283213592    -46.6159724681874   0.0026891832841468 
168 1    0.301863925108705    0.906668843167608    0.624999985337581     72.3972296003124    -46.6147182077636  0.00268911941654543 
169 1    0.551863925108705    0.156668874357024    0.624999985337581     72.3972283579792      -46.61491102839  0.00268915846886762 
170 1    0.551863925108705    0.406668833799813    0.624999985337581     72.3972297483746    -46.6165590811427   0.0026891298916183 
171 1    0.551863925108705    0.656668883724933    0.624999985337581     72.3972283213595    -46.6159724681876   0.0026891832841498 
172 1    0.551863925108705    0.906668843167608    0.624999985337581     72.3972296003127    -46.6147182077637   0.0026891194165423 
173 1    0.801863925108705    0.156668874357024    0.624999985337581     72.3972283579791      -46.61491102839  0.00268915846886675 
174 1    0.801863925108705    0.406668833799813    0.624999985337581     72.3972297483744    -46.6165590811427  0.00268912989161308 
175 1    0.801863925108705    0.656668883724933    0.624999985337581     72.3972283213594    -46.6159724681877  0.00268918328414734 
176 1    0.801863925108705    0.906668843167608    0.624999985337581     72.3972296003125    -46.6147182077638  0.00268911941654156 
177 1   0.0518639251087052    0.156668874357024    0.875000001575813     72.3972283588514    -46.6149110316749  0.00246751613920271 
178 1   0.0518639251087052    0.406668833799813    0.875000001575813       72.39722974575    -46.6165591060876  0.00246755440597246 
179 1   0.0518639251087052    0.656668883724933    0.875000001575813     72.3972283100287    -46.6159724686722  0.00246748001605379 
180 1   0.0518639251087052    0.906668843167608    0.875000001575813     72.3972296011849    -46.6147181533413  0.00246759469160818 
181 1    0.301863925108705    0.156668874357024    0.875000001575813     72.3972283588511    -46.6149110316748  0.00246751613920992 
182 1    0.301863925108705    0.406668833799813    0.875000001575813     72.3972297457497    -46.6165591060876   0.0024675544059678 
183 1    0.301863925108705    0.656668883724933    0.875000001575813     72.3972283100285    -46.6159724686721  0.00246748001605357 
184 1    0.301863925108705    0.906668843167608    0.875000001575813     72.3972296011847    -46.6147181533412   0.0024675946916165 
185 1    0.551863925108705    0.156668874357024    0.875000001575813     72.3972283588515    -46.6149110316751  0.00246751613920868 
186 1    0.551863925108705    0.406668833799813    0.875000001575813       72.39722974575    -46.6165591060878  0.00246755440596588 
187 1    0.551863925108705    0.656668883724933    0.875000001575813     72.3972283100287    -46.6159724686723  0.00246748001605381 
188 1    0.551863925108705    0.906668843167608    0.875000001575813      72.397229601185    -46.6147181533414  0.00246759469161588 
189 1    0.801863925108705    0.156668874357024    0.875000001575813     72.3972283588514    -46.6149110316751  0.00246751613920722 
190 1    0.801863925108705    0.406668833799813    0.875000001575813     72.3972297457499    -46.6165591060878  0.00246755440597294 
191 1    0.801863925108705    0.656668883724933    0.875000001575813     72.3972283100286    -46.6159724686723  0.00246748001605427 
192 1    0.801863925108705    0.906668843167608    0.875000001575813     72.3972296011849    -46.6147181533415  0.00246759469161469 
ITEM: TIMESTEP
200
ITEM: NUMBER OF ATOMS
192
ITEM: BOX BOUNDS pp pp pp
0.0000000000000000e+00 9.5711999999999993e+00
0.0000000000000000e+00 1.1051869792935490e+01
0.0000000000000000e+00 1.8096974824551619e+01
ITEM: ATOMS id type xsu ysu zsu fx fy fz 
1 1    0.460460649031802   0.0264461127187587     0.27311824002993     22.7247118069203     6.76297043358983    -14.4213360075108 
2 1   0.0167446524924344    0.270751915352889    0.100734831706404    -11.3073969883076    -43.8667152433449     -20.985297251493 
3 1   0.0686827150121871    0.440957575516109  -0.0338331927753188    -28.8627950948231    -26.5953834044058     23.0435892918329 
4 1    0.072239827758267     1.00125885416446 -0.000736702913172849    -23.0368734182329    -36.6927728963599    -25.3758454984179 
5 1    0.296628490551029    0.310516761725239    0.228224881473693    -32.7659223822402     -2.1627650773058     22.3832944654126 
6 1    0.239161927520627    0.237696531473489  -0.0129081750474143    -8.77820795369158     30.8678098635619    0.586429708417036 
7 1    0.139274150742835    0.500391475076299    0.224134327362776    -31.8864098672748     -4.3274092715762     32.5306028939773 
8 1    0.256692105103298    0.806044158116151    0.204925897937983    -26.7304842705761     26.1013389319746    -18.8431004524077 
9 1    0.637218647067584    0.305932235197702 -0.00971839264781238     8.91698282881209      -6.949438579694    -33.7588551933851 
10 1    0.749691874060773    0.611468777294931  -0.0301715065456278     26.1431341234224     41.9854260032414     25.6721599484289 
11 1    0.304752227448148    0.738700413230958   0.0275232541406467    -34.0243387412082      24.931124540258    -4.33467779114721 
12 1    0.468678977548961    0.749687430117888  -0.0962589106646874     27.2683910078542     13.8484250764476   -0.625803001754115 
13 1     1.01646382075933   0.0265863090253333    0.209633730115115     -43.324213986332    -12.4363623907238    -5.08526296947793 
14 1    0.691000478039882    0.457253029743924    0.148060176888407     8.65214056149335     33.4922641487455    -35.0847269731752 
15 1    0.831627438496298    0.703864441775977    0.153739108121613     6.50811444795713     6.37189667685004    -2.19013468792325 
16 1    0.940033772206334     0.83747976319205    0.340719429184674    -1.00649136243896     41.4940145651853    -1.02628068461386 
17 1    0.229764166356517    0.234936563098017    0.517550470510514    -29.9609091688228    -8.83346452008151     14.9432399797347 
18 1    0.291839780594842     0.55832672206634    0.536176374156526    -5.93170119567558    -1.01774850473421   -0.338334052986597 
19 1    0.218906933088078    0.548551951048125    0.375251687648642     33.1232643744775   -0.462041429986047     -23.316632964787 
20 1    0.143765773100995     1.14294844290851    0.353296631044145    -5.02943833400517     38.5814703797127     2.18701748534212 
21 1    0.640016913308841   -0.164993114384913     0.42896462533281     13.0750312367195     16.8627398626866     -13.951655188337 
22 1    0.444634626559719    0.289313800270975    0.349741963676138     1.43964147028175      32.447814619187    -8.56577763241776 
23 1    0.604741647116384    0.552493122278179    0.538533913564947    -6.96068012738913    -35.6930818376664    -40.9197547592696 
24 1    0.388148787456885     1.05209972247076    0.120600923050574     19.9465931599872     34.7574844584339    -31.4348051428051 
25 1    0.650045999352869    0.194691937545031    0.196846610612965      5.1133074881955    -36.8046590342804    -6.93262098865141 
26 1    0.620986014584105    0.297712391812297     0.44337309687694    0.499206172713823      -7.439768318228     1.85490039852335 
27 1    0.454190440539719    0.535923924844838    0.264555591542376    -32.0166920214772    -7.97942638384974     27.2744656899092 
28 1    0.366165043197839    0.792526413700216    0.364699655075242    -22.6190514107189     17.0802513096263     25.6125152650554 
29 1    0.718387252118987  -0.0892365183646007    0.236880134014996     4.87192221796771    -4.37484076235242      55.947739744354 
30 1    0.887448470804998    0.244728442064115    0.282600933575395    -24.2483459847082      25.161402098084    -8.16082893905124 