ITEM: TIMESTEP
0
ITEM: NUMBER OF ATOMS
81
ITEM: BOX BOUNDS xy xz yz pp pp pp
0.0000000000000000e+00 9.3428931428855577e+00 2.9999844344079998e-02
0.0000000000000000e+00 9.3127966583276205e+00 0.0000000000000000e+00
0.0000000000000000e+00 9.3128449783091938e+00 0.0000000000000000e+00
ITEM: ATOMS id type xsu ysu zsu fx fy fz 
1 1   0.0751649680269111   0.0749228213177275                    0    -25.2490766756577    -45.8707824815849 7.09237786722383e-07 
2 1  -0.0751649545268265   0.0754071011925816                    0     24.9225466906073     -45.887411277619 7.95027696432097e-07 
3 1                    0                    0                    0    0.326527972923483     91.7582408196971 6.70579985317943e-07 
4 1   0.0751649734435205    0.408256202673556                    0    -25.2490781090951    -45.8708121129577  6.4626358398101e-07 
5 1  -0.0751649491102171     0.40874048254841                    0     24.9225381346132    -45.8874485873381 6.52240868737234e-07 
6 1  5.4166093832464e-09    0.333333381355828                    0    0.326522172524328     91.7582105838664 6.89011279142449e-07 
7 1   0.0751649788601298    0.741589584029498                    0    -25.2495094922947    -45.8712405738788 7.71230464380324e-07 
8 1  -0.0751650507256727    0.742073756525201                    0      24.923076732313     -45.887867124723 7.12765158317358e-07 
9 1 1.11791678136797e-08    0.666666655332619                    0    0.326464890825253     91.7591044957556 7.36506109433321e-07 
10 1    0.408498326467338   0.0749228213177275                    0    -25.2491405312438    -45.8707263984311 6.86841026276142e-07 
11 1    0.258168296535587   0.0754071011925816                    0     24.9231222973828    -45.8877917272654  6.8151180432352e-07 
12 1    0.333333358440427                    0                    0    0.326027773010567     91.7585643912897 7.28811175743083e-07 
13 1    0.408498331883948    0.408256202673556                    0    -25.2491463659873    -45.8707571896464 6.58479721638017e-07 
14 1    0.258168301952196     0.40874048254841                    0     24.9231181600627     -45.887823123868 6.74619138774091e-07 
15 1    0.333333363857037    0.333333381355828                    0     0.32602566418976     91.7585299154781 6.80584666068462e-07 
16 1    0.408498337300557    0.741589584029498                    0    -25.2495234993179    -45.8712352927634 7.36557090041945e-07 
17 1    0.258168307714755    0.742073756525201                    0     24.9230585409854    -45.8878630261802 7.19185493824881e-07 
18 1    0.333333369619595    0.666666655332619                    0    0.326455546968858     91.7591055685204 7.10840843409777e-07 
19 1    0.741831684907652   0.0749228213177275                    0    -25.2491456688285    -45.8707183710468 7.23557295421399e-07 
20 1    0.591501654976014   0.0754071011925816                    0     24.9231139918812    -45.8877912823681 7.22113241782146e-07 
21 1    0.666666716880854                    0                    0    0.326019646020333     91.7585685032414 7.18514520190588e-07 
22 1    0.741831690324375    0.408256202673556                    0    -25.2496392096984    -45.8711912568536 6.92089539997432e-07 
23 1    0.591501660392623     0.40874048254841                    0     24.9226221643614    -45.8873933611511 6.48997753035369e-07 
24 1     0.66666661491945    0.333333381355828                    0    0.327037156286534     91.7585304837257 7.15977786691982e-07 
25 1    0.741831695740984    0.741589584029498                    0    -25.2500407540955    -45.8716750027392 6.78069185580492e-07 
26 1    0.591501666155182    0.742073756525201                    0     24.9225593177686    -45.8874282427683 6.54498269563736e-07 
27 1    0.666666620682008    0.666666655332619                    0    0.327463453494057     91.7591016716086 7.59895917600006e-07 
28 1   0.0751649680269111   0.0749228213177275    0.333333369902562    -25.2490766026336    -45.8707820090566 -2.52242793790103e-05 
29 1  -0.0751649545268265   0.0754071011925816    0.333333369902562     24.9225464420801     -45.887410897865 -2.46643085686376e-05 
30 1                    0                    0    0.333333369902562    0.326527721571594     91.7582402602929 -2.54248075437502e-05 
31 1   0.0751649734435205    0.408256202673556    0.333333369902562    -25.2490780468173    -45.8708119296614 -2.50948789073391e-05 
32 1  -0.0751649491102171     0.40874048254841    0.333333369902562     24.9225377824161    -45.8874481678208 -2.48210911289053e-05 
33 1  5.4166093832464e-09    0.333333381355828    0.333333369902562    0.326522188635568     91.7582098600016 -2.54826656211904e-05 
34 1   0.0751649788601298    0.741589584029498    0.333333369902562    -25.2495094521132    -45.8712405194073 -2.47923040586073e-05 
35 1  -0.0751650507256727    0.742073756525201    0.333333369902562     24.9230762599917    -45.8878667937703 -2.46071650982376e-05 
36 1 1.11791678136797e-08    0.666666655332619    0.333333369902562    0.326464769275836      91.759104143363 -2.5098401629009e-05 
37 1    0.408498326467338   0.0749228213177275    0.333333369902562    -25.2491403527749    -45.8707258453345 -2.52779161056815e-05 
38 1    0.258168296535587   0.0754071011925816    0.333333369902562     24.9231220448584    -45.8877915048947 -2.46948098576727e-05 
39 1    0.333333358440427                    0    0.333333369902562    0.326027724346754     91.7585640214438 -2.54669355439496e-05 
40 1    0.408498331883948    0.408256202673556    0.333333369902562    -25.2491462244889    -45.8707569950979 -2.52186333358217e-05 
41 1    0.258168301952196     0.40874048254841    0.333333369902562      24.923117887439    -45.8878231122623 -2.48803363689376e-05 
42 1    0.333333363857037    0.333333381355828    0.333333369902562     0.32602572030148     91.7585291787414 -2.52058408943823e-05 
43 1    0.408498337300557    0.741589584029498    0.333333369902562    -25.2495232837374    -45.8712352408706 -2.48826449010253e-05 
44 1    0.258168307714755    0.742073756525201    0.333333369902562     24.9230585379112    -45.8878627713784 -2.52755706060537e-05 
45 1    0.333333369619595    0.666666655332619    0.333333369902562    0.326455490759654     91.7591053574245 -2.4933330778909e-05 
46 1    0.741831684907652   0.0749228213177275    0.333333369902562    -25.2491451841206    -45.8707179446345 -2.48510749231027e-05 
47 1    0.591501654976014   0.0754071011925816    0.333333369902562     24.9231138287858    -45.8877909482169 -2.48137461419662e-05 
48 1    0.666666716880854                    0    0.333333369902562    0.326019908448089     91.7585680489434 -2.51027033934328e-05 
49 1    0.741831690324375    0.408256202673556    0.333333369902562    -25.2496387687709    -45.8711909966769 -2.42861575461355e-05 
50 1    0.591501660392623     0.40874048254841    0.333333369902562     24.9226219982264    -45.8873932629647 -2.52087609370379e-05 
51 1     0.66666661491945    0.333333381355828    0.333333369902562    0.327037212912349     91.7585295926395 -2.49594121579794e-05 
52 1    0.741831695740984    0.741589584029498    0.333333369902562    -25.2500402557525    -45.8716747588627 -2.48131676845349e-05 
53 1    0.591501666155182    0.742073756525201    0.333333369902562     24.9225593332868    -45.8874278636644 -2.54249126296208e-05 
54 1    0.666666620682008    0.666666655332619    0.333333369902562    0.327463319962303     91.7591010995894 -2.51704175273509e-05 
55 1   0.0751649680269111   0.0749228213177275    0.666666632426541    -25.2490765929884    -45.8707819933196 2.45150415842943e-05 
56 1  -0.0751649545268265   0.0754071011925816    0.666666632426541       24.92254638945    -45.8874107397057 2.38692808815115e-05 
57 1                    0                    0    0.666666632426541    0.326527721847887     91.7582402604293 2.47542275602086e-05 
58 1   0.0751649734435205    0.408256202673556    0.666666632426541    -25.2490780364613    -45.8708119266406 2.44486153446744e-05 
59 1  -0.0751649491102171     0.40874048254841    0.666666632426541     24.9225377789247    -45.8874481736012 2.41688502623687e-05 
60 1  5.4166093832464e-09    0.333333381355828    0.666666632426541    0.326522185284698     91.7582098472152 2.47936543464888e-05 
61 1   0.0751649788601298    0.741589584029498    0.666666632426541    -25.2495094029294      -45.87124060549  2.4021073609326e-05 
62 1  -0.0751650507256727    0.742073756525201    0.666666632426541     24.9230762916619    -45.8878668240197 2.38943999563317e-05 
63 1 1.11791678136797e-08    0.666666655332619    0.666666632426541     0.32646480475537     91.7591041154108 2.43618955337865e-05 
64 1    0.408498326467338   0.0749228213177275    0.666666632426541    -25.2491403748707    -45.8707258127135  2.4591075094671e-05 
65 1    0.258168296535587   0.0754071011925816    0.666666632426541     24.9231220441634    -45.8877915063193 2.40132980560137e-05 
66 1    0.333333358440427                    0    0.666666632426541    0.326027689257158     91.7585640445201 2.47381243830835e-05 
67 1    0.408498331883948    0.408256202673556    0.666666632426541    -25.2491462188524     -45.870756993554 2.45601536276729e-05 
68 1    0.258168301952196     0.40874048254841    0.666666632426541     24.9231178910875    -45.8878231122756 2.42057172070709e-05 
69 1    0.333333363857037    0.333333381355828    0.666666632426541    0.326025713977726     91.7585291764004 2.45252562189879e-05 
70 1    0.408498337300557    0.741589584029498    0.666666632426541     -25.249523245929    -45.8712352697544 2.41460878242505e-05 
71 1    0.258168307714755    0.742073756525201    0.666666632426541     24.9230585633836    -45.8878627982052 2.45563851055675e-05 
72 1    0.333333369619595    0.666666655332619    0.666666632426541    0.326455490183438     91.7591053588872  2.4222489949044e-05 
73 1    0.741831684907652   0.0749228213177275    0.666666632426541     -25.249145162072    -45.8707178746649 2.41275176164927e-05 
74 1    0.591501654976014   0.0754071011925816    0.666666632426541     24.9231137917498    -45.8877909153934 2.40916328935088e-05 
75 1    0.666666716880854                    0    0.666666632426541    0.326019867847232     91.7585680715851 2.43841888754471e-05 
76 1    0.741831690324375    0.408256202673556    0.666666632426541    -25.2496387662548    -45.8711909991441 2.35940680172364e-05 
77 1    0.591501660392623     0.40874048254841    0.666666632426541      24.922621990288    -45.8873932579649  2.4559763180939e-05 
78 1     0.66666661491945    0.333333381355828    0.666666632426541    0.327037180550032      91.758529606062 2.42434343865148e-05 
79 1    0.741831695740984    0.741589584029498    0.666666632426541    -25.2500402270615    -45.8716747852315  2.4135098509597e-05 
80 1    0.591501666155182    0.742073756525201    0.666666632426541     24.9225593213963    -45.8874278617324 2.47704143679327e-05 
81 1    0.666666620682008    0.666666655332619    0.666666632426541     0.32746331161088     91.7591009692199 2.44105216017261e-05 
ITEM: TIMESTEP
200
ITEM: NUMBER OF ATOMS
81
ITEM: BOX BOUNDS xy xz yz pp pp pp
0.0000000000000000e+00 9.3428931428855577e+00 2.9999844344079998e-02
0.0000000000000000e+00 9.3127966583276205e+00 0.0000000000000000e+00
0.0000000000000000e+00 9.3128449783091938e+00 0.0000000000000000e+00
ITEM: ATOMS id type xsu ysu zsu fx fy fz 
1 1  -0.0332579304705405   -0.309852514209695   0.0153558597495476    0.289880908687058     -8.4643467901951     5.88481552584524 
2 1  -0.0544637256467126   -0.177127544192444  -0.0548496291606853    -6.58102414086022     5.13671730759628     -13.980404889284 
3 1 -0.00687398325470667   -0.213589844296905   0.0245250571828137    0.900936259144128    -7.55531093117853     5.20772296817215 
4 1  -0.0556488947867138    0.149524836507226 -0.00459853850605896     6.93625199342032     24.6980719087499    -2.60973766451881 
5 1   -0.183019161338962   0.0756279223867296   0.0376443560684265    -23.4139322331777     8.00860846000379      13.326611573446 
6 1  -0.0907145986731734   0.0589249632546398  0.00935745608228444     16.8300863045308    -26.3889935826428    -2.27985790122679 
7 1 -0.00392170445388729    0.384199479911445   0.0531749602694163    -2.27945448197435    -1.36448460346363    -7.09631234954935 
8 1   0.0944000231646669     0.47518731147261     0.12416359861561     4.17334431215234     26.8443401390529     4.75403366475242 
9 1   0.0853330869041429    0.380627261013842   0.0998075009163131    -5.57817226455368    -18.5499703715435    -11.3056963143104 
10 1    0.237281365632725    0.346153090516964   -0.226403316052767    -37.3116890720202     14.1952722733467     -8.1298000439569 
11 1    0.333719911310254    0.348299600676114   -0.111349432230668     2.22119124324702     7.45867668546953     23.4076361549156 
12 1    0.324580985917237    0.311435421664783   -0.202356699122845     24.1908658127609    -12.9470378256946    -4.82728230407012 
13 1    0.325386725888734    0.632440718500789   -0.110447275586637    -23.6653329592101    -6.06517496161985     43.3495642211071 
14 1    0.251855789610659    0.667608042924712   -0.245202341722688    -13.3629431672153   -0.105487074360064     10.2307771846933 
15 1    0.341602064239737    0.653348720522104   -0.202325262496061     23.6686433448276     14.0222526191831    -46.7987368584851 
16 1    0.215376822613848     1.07474971115369   -0.146227822926789    0.189301303634629     8.28663406842634    -12.2050702843865 
17 1    0.180550618394022    0.953867608749306  -0.0630049958629684   -0.695890848541566    -14.0119092904643    -1.24951655411878 
18 1     0.24079281206582     1.03297740246239   -0.059882880616442      7.9005459474295    0.480424659684275     4.65819725085783 
19 1     0.65955271015423  -0.0590267660038535  -0.0848170994189559    -32.2162604231548    -10.1338371506965     26.2806757641802 
20 1    0.521479475391175 -0.00700437298223733   -0.112534799094135     -37.973331811706     19.5611634192238    -32.2286235565886 
21 1    0.563065698951618  -0.0566946117355656  -0.0426596759179461     57.0763007538473    -26.3287492182958     9.09776916896924 
22 1    0.773369904485435    0.380594649921363    0.202331892467214     39.6833253887327     8.48389576279665     3.51208140863925 
23 1    0.632481313711878    0.422662785835996    0.207721611450097    -15.1887295035585     10.4896744897709     1.15101235510724 
24 1    0.688932898818848    0.352518175303999    0.166872294110362    -24.2659500680063    -19.7923812842148    -22.7042365854626 
25 1    0.596281799408644    0.698513720273354    0.265483804682276     13.4251313595242    0.165099949188145    -6.42473692495531 
26 1    0.701024529576443    0.731069785273007    0.155571878758792     8.13003950779135     33.8032821580775    -32.5947970604522 
27 1    0.687534943364653    0.670520724099333    0.228259645410844    -8.32995355649178    -25.3307959954623     42.0730911317171 
28 1    0.167836370515602   0.0344982101102005    0.349603205861172    -0.36681515118349    -20.0297142189356     18.1749380012359 
29 1    0.153476276219521   0.0522431789044049     0.19520155984776    -5.06273976908169     7.78256205337542     9.55932024675045 
30 1     0.15613741483196    0.104983688598736    0.282707957916386    -7.06433149990516     19.6468538861922    -26.4348915843288 
31 1   -0.106204400549984    0.396304141275891    0.386315946696072     -25.617826004699      26.058000826302      10.980844783424 
32 1  -0.0509665459074995    0.252892109725508    0.394464445185463     10.3033118281618     18.0769502357352   -0.742326584552316 
33 1  -0.0218651828720908     0.34991864021697    0.375302322149764     26.8323907908276    -33.5330918058775      4.8948352237875 
34 1   0.0542990233725504    0.650705729509809    0.394721067599221     24.0027776029848    -34.8131928985443     48.9812973666524 
35 1   0.0449737468829881    0.782311017331381    0.326658319895046    -14.8645690259822    -7.84929038656825    -4.83533530175192 
36 1  0.00632955018954817    0.688155108681258    0.323306342711589    -28.8900326736455     33.0429755707648    -39.5216169153846 
37 1    0.535231414836403   0.0281973286004131    0.272942093205415     13.1706237929453    -4.80653787710124     3.14621804563406 
38 1    0.415061019701739   0.0883736303206888    0.208769010882747     1.73886194378304     6.97886453165787    -12.3890388183749 
39 1    0.512961566285753   0.0767474702383879    0.187942451503659    -5.58549515714798   -0.357660526110848     7.89120378536134 
40 1    0.342919208794115    0.470773830248277    0.151936994800394     18.5097522804907    -18.7518295983981     15.7648142464595 
41 1     0.34048732667668    0.316049931592261    0.198211471248101     6.65153684436434     12.8887634150936    -2.10591236059979 
42 1    0.391103722271623     0.40341943171768    0.216844835937991    -22.1116414512352     9.86034049921668    -29.1772966605995 
43 1    0.234662809492761    0.780943908522659    0.186117820293362     10.4360015392493    -1.59330937430244     -4.9987518446937 
44 1    0.370492924092787    0.754067163348736    0.118500301929657     16.8428057755456    -25.1921246791617    -22.8908213582402 
45 1    0.327351952092158    0.821514386605486    0.173723568405194    -21.0135153582013     12.8021407873686      15.849321373671 
46 1    0.773808693095475  -0.0465217825855007    0.417494521019762   -0.963026970460155    -29.7363486254236     36.5560430545912 
47 1    0.856442875359789   0.0473269914502907    0.333016738543392    -52.1562627339068    -29.9789055835612    -12.8746771442418 
48 1    0.764266870012762 -0.00834041638330518    0.330881216803505     60.5569265750983     49.0518547890008    -36.1412476623426 
49 1    0.610436371428705    0.279705869053487    0.435355030734172     -5.0232623918514    -6.95633179203299    -4.88963866774491 
50 1    0.657680255507216     0.33439952076526    0.567287643485315     15.2700016619564   -0.240554677169805     16.3566545586844 
51 1      0.5727014179771    0.321617010756995    0.518571736271838    -7.75106149702184    -4.86008036399894    -7.96395272570482 
52 1    0.698653531231002    0.618653181599257    0.511390278113367     11.3153822170605     13.6589255610322    -26.0943866547214 
53 1    0.581911734454934     0.58311670247042    0.605215738462789    -4.78950264527148     1.98339137302313     2.07324098534007 
54 1    0.682400923505156    0.585169773246889    0.602029643743322     2.40287022284238    -2.98551397145929     22.4395848187843 
55 1  -0.0210238840087413     0.13306767559709    0.667104042432811     19.1843883657352    -20.3722587452668    -20.0348400750312 
56 1  -0.0319696949372315    0.287465782853587    0.677753330254291      2.2418308414106    -4.31882570616409    0.680008387619998 
57 1  -0.0694853855188171    0.201282110404577    0.715784270226436    -18.0898604685523     30.6253822832208      18.693799416431 
58 1  -0.0817461537254758    0.536453428093068    0.680061510139126    -24.1236525592529    -19.6743834732661    -37.7265943059623 
59 1  -0.0459777933502892    0.524316768617723    0.826315184334021    0.914048833636675    -3.63124221489795     4.27726031310284 
60 1  -0.0280297056037853    0.580311077025158    0.744881870524637     30.7715931428256     25.5345277767219     29.1203036062602 
61 1  0.00924803881059688    0.834159839679728    0.583403949353283    -29.1585254048632    -25.8046812707278    -31.6530192785939 
62 1    0.125621567650455    0.925215563001416    0.596456537157565     38.4037400762698     24.9055261214457    -32.7323328822731 
63 1   0.0630859490147486    0.878201086529657    0.648309792270538    -12.8659359371099      -12.35942887781     75.3231360734848 
64 1    0.395927120070724   -0.203059493885462    0.578245851940892     12.0047793177281     16.9482864397913     16.0797623993015 
65 1    0.424213183230904   -0.235138360153201    0.430543440228234     28.3260863322934     13.4932053517581    -23.5935994431982 
66 1    0.361424650688491   -0.254105280431247    0.501262669447442    -38.0786733217448    -18.4518515231458     12.7934764290906 
67 1    0.280366322756549    0.131624845118949    0.554164865083862    -52.2881820656152     14.7196127868688     9.12243305536249 
68 1    0.411331376895873    0.113027764030221    0.628581204267789     -1.6087753111482    -7.48366683414338    -14.4785326054774 
69 1    0.370009420898555    0.107960207801057    0.534604895467396     57.3974729678605    -14.2952664073976     6.74050775727428 
70 1    0.249090470407282    0.450800427745889    0.550207814881219    -14.6199210560048     11.9886716198874     30.4519067424485 
71 1    0.307641046345339    0.503943810032411    0.417596851332632    -7.95627224271157    -13.7652207585706      10.710246857769 
72 1    0.275008893774952    0.417316459273707    0.462733323553152     9.78416729236625     5.67102609329652    -32.5730569443051 
73 1    0.709522209841793    0.272107916898676    0.838750095040041     44.6862567933246     7.53756463097933    -28.0363810914443 
74 1    0.565560271356617    0.233930468223889    0.829529412637839    -16.4791705889789    -6.81029338324155    -16.2120236497473 
75 1    0.631690046844597    0.267978275488758     0.89295247378061    -22.9950363404563     10.4673663535968     48.5046711938356 
76 1    0.564653626095037    0.557625604615282    0.905930857207409    -25.6941464679878    -15.4160892954361     1.76859281431026 
77 1    0.658137616497015    0.665557668181009    0.880599626220601     10.9006469886048     45.9901444137841     -18.978894211779 
78 1    0.658600679768938    0.579057258562329     0.92068054508195     22.1393391391696    -31.6667657167154      19.754654573382 
79 1      0.6539379255114     0.94783699005086    0.586282915175843     4.33528561270058    -17.7621603377723     41.6496125956681 
80 1    0.775089091231735     0.94708863705921    0.679996269213234      57.105487493731     18.4172290552729     5.72810264774634 
81 1    0.688778702915556    0.910101299436633    0.679144055338725    -65.7633120882067    -9.22918035292268    -45.4868016634076 
ITEM: TIMESTEP
400
ITEM: NUMBER OF ATOMS
81
ITEM: BOX BOUNDS xy xz yz pp pp pp
0.0000000000000000e+00 9.3428931428855577e+00 2.9999844344079998e-02
0.0000000000000000e+00 9.3127966583276205e+00 0.0000000000000000e+00
0.0000000000000000e+00 9.3128449783091938e+00 0.0000000000000000e+00
ITEM: ATOMS id type xsu ysu zsu fx fy fz 
1 1   0.0746262784005012    -0.27901193044238  -0.0838903544006371    -5.47778224413785    -4.97421438510549    -23.5770190177946 
2 1   -0.014418913985196   -0.274569113020675    0.041214249689574    -39.6115002508812    0.922810590925669     5.51025806558216 
3 1   0.0784861471358909   -0.276802850508602   0.0149167920004629     39.8878622409784    -5.27056600612343     9.55937237526591 
4 1   -0.161738103856294   0.0265516251666895  -0.0751264149825488   -0.121160658851173     4.12778440343788     6.26991913252538 
5 1  -0.0903478207684998    0.131861422885322   0.0165034723263489     18.7576654444394     13.7182073448031    0.754997268121068 
6 1   -0.168351455418474   0.0729389811345982    0.014984701913022    -27.4294323659505    -20.4045224870113     4.33840073695877 
7 1   0.0659586589603123    0.423141232113721  -0.0448296926720104    -3.61332507216693    -2.58884209451292     8.01876715089611 
8 1  -0.0683808189713204    0.404652842089945   0.0301830736516422    -6.82896007569763     1.11541586734768     1.80404359035375 
9 1   0.0272349338941922    0.372457764741398   0.0349202980908103    -1.62519160104796     10.0212518557237    -12.9731931347639 
10 1    0.361976137057468    0.299966343498795   -0.160138654158175     14.9151158067143    -11.5581172464396    -9.62484536655405 
11 1    0.259224410967136    0.393063589383019   -0.232754823453831   -0.201842379442335     7.38116165056952    -18.9401118883064 
12 1    0.290273603236301    0.365328476400578   -0.142639997186336    -11.3491873370815     17.7461475127334      24.076103832781 
13 1    0.351874074941975    0.707762716993102   -0.110940599835146   -0.547887190760951    -10.2001186398973    -38.8219479665009 
14 1    0.353114277453528    0.734630402982475   -0.273868526534272    -2.89209735682813     4.70478198505187     6.16392701791011 
15 1    0.359731095694542    0.661224873836773   -0.204932316876068    -4.17102742054122   -0.150329921092066     27.0565049803085 
16 1    0.210884178014908     1.09609906971025  -0.0784012559105918     5.23358248220892     11.1696247677539    -19.0951252787689 
17 1    0.152187580627015    0.957197300855682  -0.0391034513417026     6.74620528470788      14.409681829059     1.25616849119871 
18 1     0.18501307275244     1.04553110670986  0.00150519066244215    -8.87601801332023    -23.1564910352528     16.4035636725547 
19 1    0.551087475975578  -0.0304650669699527   -0.129579720254981     34.3093888838791    -17.8168478816323      1.4501130524802 
20 1     0.44691689088927    0.048292349573785   -0.200678658464824     -7.2631596783759     1.97704345342711    -3.34367433494948 
21 1    0.461964908005029  0.00369111564339164   -0.111750092314765    -19.7806121342564     9.21860219589485    -1.31152964947491 
22 1    0.639509409527705    0.497842146553126    0.213447242615416    -10.0117459723705      27.995309049896    -24.0404430550956 
23 1    0.571805219149496    0.386430095490027    0.293991917289645    -4.77155868394501    -1.15262176501839     2.89943398116307 
24 1    0.660964757683359    0.426831599793445    0.274929739243248     23.0883735609708    -26.1301175272652     24.5237338562013 
25 1    0.687803786866766    0.837685162676621    0.133055658242824    -6.99882045253038     11.9180199116401    -2.59517359265096 
26 1    0.637312418623196    0.762756583442751    0.265305713414477    -8.03907296139231     1.52137908500423      0.8179110529312 
27 1    0.714572277144384    0.768979139452426    0.200851208007748     15.7017531166045    -11.5835678413452     5.25040596187251 
28 1    0.044209060099206  -0.0167610958367845    0.227447443628421    -5.16330653583619     3.22836164736509     1.43532203610584 
29 1   0.0826374087375825    0.081803270512637    0.341410915493725    -12.7611640947511     37.3156706556306      12.429337462967 
30 1    0.108050331548611 -0.00321975681498543     0.30431038675556     18.5853713447097    -40.4992412200529    -11.5748166066926 
31 1  -0.0357759949575325    0.326526700980139     0.44334615907826     4.17587620454839     -1.9533511868583     14.2850641240854 
32 1  -0.0896318256301925     0.30002331678179    0.300961619596023     21.0134054684317     18.4582592544297     7.65657059298549 
33 1  -0.0203378565481103    0.360839900167548    0.351189548598427    -26.2876698905914    -30.0135255316658    -23.1180679407878 
34 1  -0.0947871629526844    0.655089192051378    0.371142372818213    -25.9654120414228     5.01351539155976      18.762158256035 
35 1   -0.014704986400659    0.568553725904735    0.274095039103599     5.61445852757832     16.8117204320966   -0.567635764902496 
36 1  -0.0119069652930648    0.659930423978381      0.3199010883759     21.9375744952675    -9.16206709216418    -19.2235005041177 
37 1    0.538262839676918     0.13533678661031    0.228609497667321     17.3269233435788     34.9078783727182     27.0168235915151 
38 1    0.422987474696356   0.0337302415620115    0.220856512136038     3.77386010192355     5.25317950197264    -1.77329459019469 
39 1    0.507770284852427   0.0638098520508947    0.173583959197117    -17.8193687721731    -36.9619971331611    -29.7808037007983 
40 1    0.237647199816934    0.318129692284629    0.174314636536337     8.41927464989741     2.22415985199943     0.34761799343546 
41 1    0.379583849564938    0.380928791296583    0.171509155434364     43.8860413278565    -14.2591296126127     6.43251066497244 
42 1    0.289750594605152    0.401952143143717    0.148433848686636    -54.2414691456319     11.8838172365162    -15.8968514540983 
43 1    0.371195960184082    0.768584731615874    0.116216199401606     1.37708033598528     6.00656831536996    -23.9272469437225 
44 1    0.258860412934951    0.795377160935004    0.227283696691188     24.5912717997928    -14.3175452647861    -6.68581553810129 
45 1     0.34939660132261    0.746485565922512    0.209078955908581     -25.238062521819     -1.1020347142447     35.8613823776654 
46 1    0.785498434531974   0.0340489962206902    0.343333282131312    0.299241742676368    -9.15075179799525     4.10438529410357 
47 1    0.762160078479951  -0.0352994271482885    0.479833598915206    -9.13221278770514     9.96779956786689     41.6291455047398 
48 1     0.78490917105637  -0.0578283698216637    0.389405075028549     13.4288520929358     3.07935034753841    -45.3185584330507 
49 1    0.666190263087287    0.156418285153791    0.650699699747861     1.36636066631252    -7.87107626186599      -1.516873510869 
50 1    0.700346062314907    0.218067088124599    0.510332444149526     2.43055433729508    -11.8111680122029    -27.6723828754322 
51 1    0.687721703475177    0.242761565947717    0.603711488840304   -0.355735832320444     18.5066825056779     34.1789227898304 
52 1    0.680860706932322    0.549307234576645     0.56975568706946    -8.78487445649365    0.239565579246617    -2.04903861262391 
53 1    0.555991988519963    0.510775486998227    0.655741096627366    -5.33111827528401       2.976217371386     15.5629868507249 
54 1    0.587626444782927    0.509424601052956     0.56188462895318     9.22397371121165     6.28219977880861     -17.483314392423 
55 1    0.101829535577735    0.212876255026572    0.669444506137665    -7.94020531920587   -0.379331202993093     5.85417019375122 
56 1  -0.0305646583186672    0.150116124999613    0.733879579565041    -18.5228459270336     14.0292570525903     26.4878661109047 
57 1   0.0330563494989065    0.139009702237104    0.661399986781362     21.9559455304381    -15.5365057379523    -39.8010963232515 