LAMMPS (5 Jun 2019)
units real
dimension 3
boundary p p p
atom_style full
read_data structure.inp
  triclinic box = (0 0 0) to (9.31289 9.3128 9.31284) with tilt (0.0299998 0 0)
  1 by 1 by 1 MPI processor grid
  reading atoms ...
  81 atoms
  scanning bonds ...
  2 = max bonds/atom
  scanning angles ...
  1 = max angles/atom
  reading bonds ...
  54 bonds
  reading angles ...
  27 angles
  2 = max # of 1-2 neighbors
  1 = max # of 1-3 neighbors
  1 = max # of 1-4 neighbors
  2 = max # of special neighbors
  special bonds CPU = 3.88622e-05 secs
  read_data CPU = 0.000877142 secs
include potential.inp
# @potential_species H_O  ### species in potentia
# W.L. Jorgensen et.al.The Journal of Chemical Physics 79926 (1983); https://doi.org/10.1063/1.44586



# create groups ##
group O type 2
0 atoms in group O
group H type 1
81 atoms in group H

## set charges - beside manually ##
set group O charge -0.830
  0 settings made for charge
set group H charge 0.415
  81 settings made for charge

### TIP3P Potential Parameters ##
pair_style lj/cut/coul/long 10.0
pair_coeff * * 0.0 0.0
pair_coeff 2 2 0.102 3.188
bond_style harmonic
bond_coeff 1 450 0.9572
angle_style harmonic
angle_coeff 1 55 104.52
kspace_style pppm 1.0e-5

fix ensemble all nvt temp 350 350 100.0
variable dumptime  equal 200
dump 1 all custom ${dumptime} dump.out id type xsu ysu zsu fx fy fz
dump 1 all custom 200 dump.out id type xsu ysu zsu fx fy fz
dump_modify 1 sort id format line "%d %d %20.15g %20.15g %20.15g %20.15g %20.15g %20.15g"
thermo_style custom step temp pe etotal pxx pxy pxz pyy pyz pzz vol
thermo_modify format float %20.15g
thermo 200
timestep 1
velocity all create 350 57539 dist gaussian
run 1000
PPPM initialization ...
WARNING: System is not charge neutral, net charge = 33.615 (src/kspace.cpp:300)
  using 12-bit tables for long-range coulomb (src/kspace.cpp:319)
  G vector (1/distance) = 0.312433
  grid = 9 9 9
  stencil order = 5
  estimated absolute RMS force accuracy = 0.000927171
  estimated relative force accuracy = 2.79215e-06
  using double precision FFTs
  3d grid and FFT values/proc = 4096 729
Neighbor list info ...
  update every 1 steps, delay 10 steps, check yes
  max neighbors/atom: 2000, page size: 100000
  master list distance cutoff = 12
  ghost atom cutoff = 12
  binsize = 6, bins = 2 2 2
  1 neighbor lists, perpetual/occasional/extra = 1 0 0
  (1) pair lj/cut/coul/long, perpetual
      attributes: half, newton on
      pair build: half/bin/newton/tri
      stencil: half/bin/3d/newton/tri
      bin: standard
Per MPI rank memory allocation (min/avg/max) = 8.317 | 8.317 | 8.317 Mbytes
Step Temp PotEng TotEng Pxx Pxy Pxz Pyy Pyz Pzz Volume 
       0                  350     -5745.2195617995     -5661.7568803995     502350.191578909     270.738267021724     1376.27102955284     336012.975634435     707.228109075416     447633.281389156     807.694491958975 
     200     516.054779828975    -5953.68235423325    -5830.62145230807     517051.070256082    -489.438611267953     2462.74042976889     507650.091106875    -588.133685527138      519991.41202245     807.694491958975 
     400     344.056140974651    -5989.21918935541    -5907.17390913289     500191.905425211    -5645.21111524062    -2230.36101621523     496331.875284439     1908.38413202247     504631.886210155     807.694491958975 
     600      292.67178547153    -5967.38500790164    -5897.59308794284      466665.36927827     1773.86860838872    -7133.68311077478     447121.401367241     3526.96666627454      468732.39682674     807.694491958975 
     800     402.249681935517    -5972.18390727894    -5876.26151571713     515832.570508186     4101.08177969964     822.661138163431     488789.060860251     -3489.5962230035     500977.319794091     807.694491958975 
    1000     320.180106873751    -5982.82004785158    -5906.46836142123     495373.974418278      2402.1135866365    -2548.19624723298     496875.585031828     7824.68149372476     485101.592590631     807.694491958975 
Loop time of 0.65363 on 1 procs for 1000 steps with 81 atoms

Performance: 132.185 ns/day, 0.182 hours/ns, 1529.917 timesteps/s
99.6% CPU use with 1 MPI tasks x no OpenMP threads

MPI task timing breakdown:
Section |  min time  |  avg time  |  max time  |%varavg| %total
---------------------------------------------------------------
Pair    | 0.46113    | 0.46113    | 0.46113    |   0.0 | 70.55
Bond    | 0.0032892  | 0.0032892  | 0.0032892  |   0.0 |  0.50
Kspace  | 0.10288    | 0.10288    | 0.10288    |   0.0 | 15.74
Neigh   | 0.057763   | 0.057763   | 0.057763   |   0.0 |  8.84
Comm    | 0.020496   | 0.020496   | 0.020496   |   0.0 |  3.14
Output  | 0.0027258  | 0.0027258  | 0.0027258  |   0.0 |  0.42
Modify  | 0.0021968  | 0.0021968  | 0.0021968  |   0.0 |  0.34
Other   |            | 0.00315    |            |       |  0.48

Nlocal:    81 ave 81 max 81 min
Histogram: 1 0 0 0 0 0 0 0 0 0
Nghost:    3605 ave 3605 max 3605 min
Histogram: 1 0 0 0 0 0 0 0 0 0
Neighs:    29246 ave 29246 max 29246 min
Histogram: 1 0 0 0 0 0 0 0 0 0

Total # of neighbors = 29246
Ave neighs/atom = 361.062
Ave special neighs/atom = 2
Neighbor list builds = 47
Dangerous builds = 0
Total wall time: 0:00:00
