ITEM: TIMESTEP
0
ITEM: NUMBER OF ATOMS
108
ITEM: BOX BOUNDS pp pp pp
0.0000000000000000e+00 1.2150000000000000e+01
0.0000000000000000e+00 1.2149999999999990e+01
0.0000000000000000e+00 1.2149999999999990e+01
ITEM: ATOMS id type xsu ysu zsu fx fy fz 
1 1                    0                    0                    0 -5.55111512312578e-16 2.32730501537048e-14 2.34534613952064e-14 
2 1                    0    0.166666666666629    0.166666666666629 -1.38777878078145e-16 9.71445146547012e-17 2.63677968348475e-16 
3 1    0.166666666666629                    0    0.166666666666629  1.0547118733939e-15 2.37310171513627e-14  2.4980018054066e-16 
4 1    0.166666666666629    0.166666666666629                    0 1.13797860024079e-15 1.21430643318376e-15 2.44734787990808e-14 
5 1                    0    0.333333333333371                    0 -3.19189119579733e-16 -7.63278329429795e-17 2.19685380997703e-14 
6 1                    0                  0.5    0.166666666666629 -6.38378239159465e-16 3.13192126313172e-16 5.27355936696949e-16 
7 1    0.166666666666629    0.333333333333371    0.166666666666629 1.94289029309402e-16 -9.08995101411847e-16 3.59087759527199e-16 
8 1    0.166666666666629                  0.5                    0 1.49880108324396e-15 1.78781550111071e-15 2.45278481498992e-14 
9 1                    0    0.666666666666629                    0 -5.27355936696949e-16 9.29811783123569e-16 2.32938668354166e-14 
10 1                    0    0.833333333333371    0.166666666666629 -5.96744875736022e-15 -2.47198095326695e-14 1.11022302462516e-15 
11 1    0.166666666666629    0.666666666666629    0.166666666666629 2.05391259555654e-15 1.26634813746307e-16 -4.66640615037761e-16 
12 1    0.166666666666629    0.833333333333371                    0 2.88657986402541e-15 -2.39183672867682e-14 2.31065167000111e-14 
13 1    0.333333333333371                    0                    0 -1.00855196590033e-15 2.29551010903599e-14 2.30938688040427e-14 
14 1    0.333333333333371    0.166666666666629    0.166666666666629 -1.46917525888079e-15 3.33371839248559e-16 2.90003752349138e-16 
15 1                  0.5                    0    0.166666666666629 2.07305554016449e-15 2.38018595989393e-14 1.52655665885959e-16 
16 1                  0.5    0.166666666666629                    0 1.95291916318951e-15 1.02695629777827e-15 2.45512838574838e-14 
17 1    0.333333333333371    0.333333333333371                    0 -3.11816544806831e-16 -5.53901949263899e-16 2.32203071061452e-14 
18 1    0.333333333333371                  0.5    0.166666666666629 -3.60307486971245e-16 1.07339308014863e-15 -4.15988044791954e-16 
19 1                  0.5    0.333333333333371    0.166666666666629 1.41214510655716e-15 -1.12757025938492e-16 3.33348122326035e-16 
20 1                  0.5                  0.5                    0 2.86648146625296e-15 1.02176906800928e-15 2.46263614697966e-14 
21 1    0.333333333333371    0.666666666666629                    0 -2.53922859301536e-15 1.48466579742018e-15 2.38161947845386e-14 
22 1    0.333333333333371    0.833333333333371    0.166666666666629 -2.80542733141487e-15 -2.47379631427951e-14 -4.12911621127526e-17 
23 1                  0.5    0.666666666666629    0.166666666666629 -3.6120664305677e-16 -2.60208521396521e-16 1.97758476261356e-16 
24 1                  0.5    0.833333333333371                    0 -5.8261636617582e-16 -2.42583730880597e-14 2.46768886791662e-14 
25 1    0.666666666666629                    0                    0 1.81799020282369e-15 2.40953090813179e-14 2.42913328341032e-14 
26 1    0.666666666666629    0.166666666666629    0.166666666666629 1.04083408558608e-16 4.04190569902596e-16  4.0766001685455e-16 
27 1    0.833333333333371                    0    0.166666666666629 2.08166817117217e-16 2.24299745443801e-14 2.22044604925031e-16 
28 1    0.833333333333371    0.166666666666629                    0 1.94289029309402e-16 1.23512311489549e-15  2.3189783426858e-14 
29 1    0.666666666666629    0.333333333333371                    0 1.08246744900953e-15 1.22921421305544e-16 2.34395836073986e-14 
30 1    0.666666666666629                  0.5    0.166666666666629 1.66533453693773e-16                    0 9.71445146547012e-17 
31 1    0.833333333333371    0.333333333333371    0.166666666666629 -1.38777878078145e-16 -5.70425867998936e-17 3.88578058618805e-16 
32 1    0.833333333333371                  0.5                    0 2.77555756156289e-16 1.26287869051112e-15 2.33493779866478e-14 
33 1    0.666666666666629    0.666666666666629                    0 1.60982338570648e-15 4.77048955893622e-16 2.45012343746964e-14 
34 1    0.666666666666629    0.833333333333371    0.166666666666629 9.97465998686664e-16 -2.32730501537048e-14 9.71445146547012e-17 
35 1    0.833333333333371    0.666666666666629    0.166666666666629 2.66453525910038e-15 1.38777878078145e-15 1.42941214420489e-15 
36 1    0.833333333333371    0.833333333333371                    0 1.66533453693773e-15 -2.39530617562878e-14 2.40224506953268e-14 
37 1                    0                    0    0.333333333333371 -2.77555756156289e-16 2.30891694652513e-14 -8.88178419700125e-16 
38 1                    0    0.166666666666629                  0.5 -5.68989300120393e-16 1.02695629777827e-15 9.47159017883337e-16 
39 1    0.166666666666629                    0                  0.5 1.41553435639707e-15 2.41959230429245e-14 1.55812049460607e-15 
40 1    0.166666666666629    0.166666666666629    0.333333333333371 8.32667268468867e-17 3.90312782094782e-16 -6.24500451351651e-16 
41 1                    0    0.333333333333371    0.333333333333371 -9.71445146547012e-17 6.93889390390723e-17 1.17961196366423e-16 
42 1                    0                  0.5                  0.5 -4.96824803519758e-15 1.97201467395242e-15 8.92854041568969e-16 
43 1    0.166666666666629    0.333333333333371                  0.5 -1.72084568816899e-15 -2.53269627492614e-16 1.02348685082632e-15 
44 1    0.166666666666629                  0.5    0.333333333333371 -1.84574577843932e-15 7.70252239692037e-16 -2.0122792321331e-16 
45 1                    0    0.666666666666629    0.333333333333371 -5.60662627435704e-15 6.24500451351651e-17 2.63677968348475e-16 
46 1                    0    0.833333333333371                  0.5 -5.32907051820075e-15 -2.64267774330307e-14 1.73472347597681e-15 
47 1    0.166666666666629    0.666666666666629                  0.5 5.55111512312578e-17 5.06539254985228e-16 7.52869988573934e-16 
48 1    0.166666666666629    0.833333333333371    0.333333333333371 -1.20736753927986e-15 -2.4605317783255e-14 -9.35015953551499e-16 
49 1    0.333333333333371                    0    0.333333333333371 -3.76163943743846e-16  2.4120791220503e-14 -1.22018484183771e-15 
50 1    0.333333333333371    0.166666666666629                  0.5 -3.75540527494667e-16 -1.10700429942559e-16 1.48073217641313e-15 
51 1                  0.5                    0                  0.5 2.75899637337818e-15  2.4495620240322e-14   7.950827225333e-16 
52 1                  0.5    0.166666666666629    0.333333333333371 1.43258134858906e-15  2.4980018054066e-16 -3.46944695195361e-16 
53 1    0.333333333333371    0.333333333333371    0.333333333333371 -9.20311461587164e-16 -1.06593336587912e-15 -9.09713385351119e-16 
54 1    0.333333333333371                  0.5                  0.5 7.46581615973518e-16 1.84680401059794e-15 6.91422830448318e-16 
55 1                  0.5    0.333333333333371                  0.5 2.33746534497939e-15 -1.21159592775255e-17 6.28417131699754e-16 
56 1                  0.5                  0.5    0.333333333333371 2.38239874876534e-15 4.31658154316159e-16 1.36907629330607e-16 
57 1    0.333333333333371    0.666666666666629    0.333333333333371 -1.19655262260931e-15  6.7776527120679e-16 -2.93649382154121e-16 
58 1    0.333333333333371    0.833333333333371                  0.5 -1.38821246165044e-15 -2.52308109572209e-14 1.80403448798473e-15 
59 1                  0.5    0.666666666666629                  0.5 4.76981193257842e-16 -1.52655665885959e-16 -6.29955343531968e-17 
60 1                  0.5    0.833333333333371    0.333333333333371 -4.78770126842443e-16 -2.48566629518915e-14 -9.68070567285151e-16 
61 1    0.666666666666629                    0    0.333333333333371 1.00613961606655e-15 2.43693953905222e-14 -5.13478148889135e-16 
62 1    0.666666666666629    0.166666666666629                  0.5 2.91433543964104e-16 4.61436444609831e-16 5.13478148889135e-16 
63 1    0.833333333333371                    0                  0.5 2.42861286636753e-16 2.29399832463173e-14 1.08940634291343e-15 
64 1    0.833333333333371    0.166666666666629    0.333333333333371 -7.63278329429795e-17 2.63677968348475e-16 -7.97972798949331e-17 
65 1    0.666666666666629    0.333333333333371    0.333333333333371 8.35343892582191e-17 5.67579837296162e-17 4.27074012005618e-17 
66 1    0.666666666666629                  0.5                  0.5 6.93889390390723e-16 8.15320033709099e-16 -4.63171168085807e-16 
67 1    0.833333333333371    0.333333333333371                  0.5 1.81799020282369e-15 1.30227588695381e-15 2.24820162486594e-15 
68 1    0.833333333333371                  0.5    0.333333333333371  1.8249290967276e-15 2.11983208764366e-15 1.16573417585641e-15 
69 1    0.666666666666629    0.666666666666629    0.333333333333371 1.52829138233557e-15 -3.05311331771918e-16 4.22893057377971e-16 
70 1    0.666666666666629    0.833333333333371                  0.5 2.24820162486594e-15 -2.46434816997265e-14 7.56339435525888e-16 
71 1    0.833333333333371    0.666666666666629                  0.5  4.3159920082303e-15 2.70616862252382e-16 1.38777878078145e-15 
72 1    0.833333333333371    0.833333333333371    0.333333333333371 3.36932765758816e-15 -2.59568706589483e-14 -8.46030060244751e-16 
73 1                    0                    0    0.666666666666629 -5.96744875736022e-16 2.25514051876985e-14 -1.38777878078145e-17 
74 1                    0    0.166666666666629    0.833333333333371 -6.43929354282591e-15 3.88578058618805e-15 -2.51881848711832e-14 
75 1    0.166666666666629                    0    0.833333333333371 3.40005801291454e-15 1.81504117291453e-14 -2.48481790698918e-14 
76 1    0.166666666666629    0.166666666666629    0.666666666666629 1.80411241501588e-15 1.47278023110431e-15 3.92047505570758e-16 
77 1                    0    0.333333333333371    0.666666666666629 -5.68989300120393e-15 -2.92127433354494e-15 7.49400541621981e-16 
78 1                    0                  0.5    0.833333333333371 -4.77395900588817e-15 -1.29398851659787e-15 -2.62290189567693e-14 
79 1    0.166666666666629    0.333333333333371    0.833333333333371 -1.4432899320127e-15  -2.468511506315e-15 -2.52593085336983e-14 
80 1    0.166666666666629                  0.5    0.666666666666629 -4.16333634234434e-16 -4.45823933326039e-16 5.20417042793042e-18 
81 1                    0    0.666666666666629    0.666666666666629 -5.41233724504764e-15 1.33226762955019e-15 -5.41233724504764e-16 
82 1                    0    0.833333333333371    0.833333333333371 -5.28743715477731e-15 -2.34950947586299e-14 -2.61700383585861e-14 
83 1    0.166666666666629    0.666666666666629    0.833333333333371 9.99200722162641e-16 1.73298875250083e-15 -2.37032615757471e-14 
84 1    0.166666666666629    0.833333333333371    0.666666666666629 1.04083408558608e-15 -2.31203944878189e-14 1.35828848168984e-15 
85 1    0.333333333333371                    0    0.666666666666629 -2.66261080024421e-15 2.30807025239105e-14 5.54826909242301e-16 
86 1    0.333333333333371    0.166666666666629    0.833333333333371 -2.94892148894332e-15 1.55498647270123e-15 -2.5147415481366e-14 
87 1                  0.5                    0    0.833333333333371 -5.4917550541822e-16 2.00413517975184e-14 -2.52436960224145e-14 
88 1                  0.5    0.166666666666629    0.666666666666629 -3.36164961004144e-16 1.85962356624714e-15 -2.20309881449055e-16 
89 1    0.333333333333371    0.333333333333371    0.666666666666629 -1.4528851212392e-15 -2.47701232897364e-15 1.37338260880991e-15 
90 1    0.333333333333371                  0.5    0.833333333333371 -1.37414493846244e-15 -7.06293340870315e-16 -2.46439729788359e-14 
91 1                  0.5    0.333333333333371    0.833333333333371 -6.83467497007706e-16 -2.24486770318555e-15 -2.54184897414099e-14 
92 1                  0.5                  0.5    0.666666666666629 2.06167819361697e-16 -1.31887095645641e-15 -4.64905891561784e-16 
93 1    0.333333333333371    0.666666666666629    0.666666666666629 -3.2172886316878e-15 2.08485979131742e-15 2.96309065608499e-16 
94 1    0.333333333333371    0.833333333333371    0.833333333333371 -4.51972714896748e-15 -2.23702553334669e-14 -2.50847621483235e-14 
95 1                  0.5    0.666666666666629    0.833333333333371 -3.34801630863524e-15 1.26981758441502e-15 -2.38004060904018e-14 
96 1                  0.5    0.833333333333371    0.666666666666629 -2.91433543964104e-15 -2.34048891378791e-14 6.52256026967279e-16 
97 1    0.666666666666629                    0    0.666666666666629 1.85962356624714e-15 2.37518338330744e-14 -3.22658566531686e-16 
98 1    0.666666666666629    0.166666666666629    0.833333333333371 1.63410951437015e-15 2.10595429983584e-15 -2.38212227721135e-14 
99 1    0.833333333333371                    0    0.833333333333371 1.98105420956551e-15  1.9744622603568e-14 -2.51465515077598e-14 
100 1    0.833333333333371    0.166666666666629    0.666666666666629 2.81719092498633e-15 3.80251385934116e-15 1.60982338570648e-15 
101 1    0.666666666666629    0.333333333333371    0.666666666666629 2.00707506170517e-15 -2.26685797965771e-15 6.03683769639929e-16 
102 1    0.666666666666629                  0.5    0.833333333333371 2.50494069931051e-15 -1.88564441838679e-15 -2.41300035508374e-14 
103 1    0.833333333333371    0.333333333333371    0.833333333333371 3.46647217224286e-15 -3.2607854675952e-15 -2.65882557940952e-14 
104 1    0.833333333333371                  0.5    0.666666666666629 3.60822483003176e-15 -3.57353036051222e-16 -1.2490009027033e-16 
105 1    0.666666666666629    0.666666666666629    0.666666666666629 3.06005221162309e-15 4.30211422042248e-16 -8.06646416329215e-16 
106 1    0.666666666666629    0.833333333333371    0.833333333333371  3.6498581934552e-15 -2.2310820725624e-14 -2.43940609899462e-14 
107 1    0.833333333333371    0.666666666666629    0.833333333333371 3.35322047906317e-15 1.87350135405495e-15 -2.52957377266938e-14 
108 1    0.833333333333371    0.833333333333371    0.666666666666629 4.13558076672871e-15 -2.48100151534203e-14 8.60422844084496e-16 
ITEM: TIMESTEP
100
ITEM: NUMBER OF ATOMS
108
ITEM: BOX BOUNDS pp pp pp
2.1637154969040395e-02 1.2128362845030949e+01
2.1637154969040395e-02 1.2128362845030939e+01
2.1637154969040395e-02 1.2128362845030939e+01
ITEM: ATOMS id type xsu ysu zsu fx fy fz 
1 1 -0.00771525718602106 -0.00942851740182959  0.00092114943015531    0.242184017283816    0.206600330389028    0.239154620207866 
2 1  0.00755638842167627    0.164719084543094    0.172462326580103  -0.0734685105807371  -0.0558368867000514   -0.363631010937173 
3 1    0.162187776416204 -0.00518486388250494    0.169369501054121    0.235551332949653    0.130050134693171   -0.376024699887957 
4 1    0.161833358280433    0.156407399698196 -0.000919389508283075    0.259169053192777    0.248945866046216    0.231326997103701 
5 1  0.00101192491081292    0.324070918671055 -0.00229255832658737    0.605729193963209    0.287761908567725    0.166533494449928 
6 1 -0.00361159608172557    0.502689297534403     0.16116484581471   0.0261236693448042   -0.235136471152194    0.259916730326123 
7 1    0.171027279654822    0.336356622948642    0.177855952744153   -0.328850929219243  -0.0791884736042099   -0.358274626395692 
8 1    0.170649073560412    0.499653734331559  0.00137084762923223   -0.266733061855062  -0.0435217551037658   0.0388948573070591 
9 1  -0.0148893892123851     0.67493409217343   0.0125128673753352    0.181057633138923  -0.0782329109705442   -0.246992094787395 
10 1  -0.0135106410064054    0.837031492319397    0.180923523864408    0.147210202821105    0.144752584900232   -0.253741702847393 
11 1    0.157813031315982     0.67476032007778    0.160745408164985    0.208450361268924  -0.0601514321806296    0.163113891027086 
12 1    0.162038851813008    0.834708975727835 -0.00580129359178727  0.00563127348025189     0.12524861251684    0.507188736569961 
13 1    0.334463133263966 -0.00350342754734356  0.00781609994737664   -0.176222794577026    0.067024788080372   -0.337317293687862 
14 1    0.343016421711695    0.168214071007355    0.161592112244307   -0.703591650398736   -0.295812003305266   0.0258196912158464 
15 1    0.506365548668327  0.00124563765325547    0.154907620506037   -0.198058694549955   -0.268104610289868    0.364155465399112 
16 1    0.501201616162462    0.162330581036713  -0.0129453104063941   -0.119367415654173  -0.0133445622786968    0.029103645927697 
17 1     0.32531222260684    0.330130217445458  0.00325601928113883    0.114490752883978   -0.151480381814213   -0.294800517448669 
18 1    0.330792225088203    0.500968571541534    0.164792461597358    0.134192500115218   0.0527387690053601   0.0167693892909153 
19 1    0.494308413890053    0.321259160540876    0.158794502881619    0.443693677134379    0.719890387067215    0.171595911661741 
20 1    0.493606233835976    0.489595472790029 -0.00185817218283546    0.255158271636876     0.17977721226597    0.135103397095062 
21 1    0.335797055210492     0.66245226958938 -0.00634920143312456   -0.168003345624517   0.0236519271719698    0.290974666909604 
22 1    0.335179986137746    0.830598470143968    0.162219843849584   -0.307071333056704   0.0922358790975358  -0.0129073287401916 
23 1    0.497649711664053    0.665680766345531    0.170941764410145    0.269332733689807   -0.139200171560006    -0.29933456384444 
24 1    0.501545613474946    0.824803147995567 -0.00255571760436624  -0.0156868746646879  -0.0471823043950931     0.23627873796388 
25 1    0.662394244482698 -0.00581500769362719 -0.00539592327845639    0.156284317103196   0.0584965188807597   -0.142946679429138 
26 1    0.660395336207671    0.163075066896681    0.152799379030853     0.42224024760889     0.16453033004267    0.317231400156906 
27 1    0.819952638775931 -0.00421691869922824    0.169614043290494    0.477463676787805    0.394569031851431   0.0228975370989154 
28 1     0.83708949421316    0.163444947305607 -0.00456453083171482   -0.134170401125155    -0.46392579950779   -0.033015129992709 
29 1    0.669568668918714    0.329770814135486  -0.0108983324401493  -0.0508842070832673   0.0761036601496539    0.342124513365612 
30 1    0.660334769838187     0.49308486127029    0.174095636863399      0.0354732722957  -0.0319105430500043   -0.364654831546998 
31 1    0.839413107903511     0.31425107688699    0.153920020136525   -0.411385362632412    0.670718163688651    0.537320548203304 
32 1    0.842155397753118    0.493178409897041 -0.00753545153810364   -0.374535760337905   0.0546358940319933    0.428972976190429 
33 1    0.673370600844919    0.651637240715786  0.00269982610132047     -0.3058218604152   0.0918530817846593  -0.0175348332231427 
34 1     0.66629785628345    0.829104355341315    0.170890501378153   -0.410922687231652   -0.102742527196037  -0.0925795316912763 
35 1    0.818908512166445    0.666071459269574    0.176002591845645    0.318300705531171   -0.326182456681454   0.0333254430848269 
36 1    0.823594527238583    0.835401455449073   0.0110850735983377    0.110735570910909   -0.367788742344087   -0.358589508242172 
37 1   0.0106269761863587   0.0129415323963258    0.335815116927506   -0.518076853269915   -0.379556133688058    0.309392558183825 
38 1   0.0172533835988133    0.177861208305444    0.496681652429857   -0.559055803442557   -0.207997478546545   0.0186889929972567 
39 1    0.179146929993749   0.0115085063588367    0.496143546129588   -0.126604141544696   -0.419415752386884   0.0303876636906671 
40 1    0.177301881299741    0.170293462282416    0.335766518431456  -0.0111064824244343    0.190804008862341   -0.423544037145357 
41 1 -0.00506356640784134    0.330998875530327    0.330234588343615    0.166933100404521    0.225567270034282   -0.200242149415504 
42 1 -0.00380719869639279     0.50193129246918    0.488589447305003 -0.00406261126093892    0.300347850009722    0.382017199997931 
43 1    0.172364459642949    0.349785708548893    0.483281109941572   -0.267277107485107   -0.278902196743217     0.62158234432359 
44 1     0.16450721850947    0.511819812807516    0.332701044952387   -0.242617342786681   0.0985151442449661   -0.419664531240419 
45 1 -0.00634860839835483    0.673261558673744    0.333185314540287   0.0462258052068652   -0.248394292491209    0.161942577018065 
46 1  0.00393147094803226    0.830715649520243    0.508712140327361   -0.252008121815665     0.22295188448182  -0.0757709584546232 
47 1    0.165278026476017    0.675815190722005    0.499301439388091   0.0710694335509815  -0.0916141765655371     0.16240861449475 
48 1    0.162175774205252    0.843853259754496    0.334616083065157    0.287170972832118   -0.383546478099907    0.129946564000529 
49 1     0.33724945402264  0.00781842694789248    0.324265613341709   0.0237777221261927   -0.255831235348721    0.150031912926067 
50 1    0.342235935368763    0.183347356497279    0.490955712055325    0.100886066287963   -0.352034252186311    0.213107403139999 
51 1    0.500820810171376   0.0091280003907741    0.501284166554228   -0.198179363676125   -0.383720831918058   -0.145429056121206 
52 1    0.503690796355954    0.164077204766386    0.325111638363978    0.153845491171587    0.138149552229581    0.165843981849688 
53 1    0.332959242407924    0.343858074156287    0.334391655678814    0.527932750585293    -0.07700381030096   -0.372508160944586 
54 1    0.327554975648354    0.512410066708981    0.493218475876915    0.287741777037639    0.237303072997444    0.354674190228181 
55 1    0.508358124275674    0.344079748488866    0.492347190707619     -0.3008383177301   -0.181176831711521    0.194062206821755 
56 1    0.496442910196606    0.507510904021387     0.33907437126436   0.0818727325213348  -0.0312399407407859    -0.17093411433074 
57 1    0.330822214945215    0.668537475925632    0.322928184684656   -0.144009879823858    0.356930690520105    0.444278245833186 
58 1    0.335412488484394    0.842294878699136    0.504265845981081   0.0232866366610215   -0.193576467263203   -0.370414851329788 
59 1    0.502420959300593    0.679842329471967    0.515843489151735   -0.345162971749259   -0.159713914989928   -0.613053553133277 
60 1    0.496899937863532     0.84163675049615    0.324034677497025  -0.0760363542567663   -0.202612485299031    0.515090282971504 
61 1    0.668143803650651 -0.00872092289745297    0.333662655249441   -0.168698196046991    0.487020519590038    0.214844869674961 
62 1     0.65799153814703    0.165589440902636    0.500044247923825    0.674276308074964  -0.0816888677630836   -0.272032301719363 
63 1    0.838701467934698 -0.00193180496552259    0.503816704587621   -0.169981836841011   0.0710591956005063  -0.0714818012121642 
64 1    0.834900059026495    0.161535452637395    0.335636916759313   -0.213343690214132  0.00240353826204343  -0.0381261057835932 
65 1    0.667401113715755    0.332137859775912    0.330721674735969   0.0488418012369606   -0.336424997828409   -0.186354025022771 
66 1    0.672147105257409    0.498329928424596    0.498603111886609  -0.0540358041097252    0.164359151966911    0.278635149242428 
67 1    0.836955226392661    0.329300264401013    0.497260166429669  -0.0956007980816521 -0.00638585891687663   0.0685676632772046 
68 1    0.830013242755285    0.494145694080316    0.333290461891579     0.10021687749258    0.198861875575714   -0.256930846379686 
69 1       0.661374111697    0.668006911060957    0.346384889755882   -0.112554660292867   0.0581986449742898   -0.153026464319295 
70 1    0.661819966231178    0.839850631764875    0.510534235666796    0.139602305061569   0.0192561326829435  -0.0507826204660757 
71 1    0.827930633753112    0.671648468300987    0.510192532188057    0.240112664002274   -0.305659871942266   0.0570493487732471 
72 1    0.824922353141119    0.829103250383355    0.345520525932557    0.268946451005066    0.146929466476075  -0.0610483793854676 
73 1 -0.000305979681400004  0.00515313713117393    0.660765866074257    0.163722002959977   -0.115253394457794    0.269747241800993 
74 1   0.0064326747068435    0.165329202969701    0.829907124452916  -0.0740458837127197   -0.045424885421627   -0.199980842104108 
75 1    0.166954185841405  0.00196501370783153    0.835498429641575   -0.151015788407902  -0.0133908096132895   -0.122702449115013 
76 1     0.17492065576937     0.16624480796429    0.652771775953283   0.0927461272030453    0.439746698990355    0.597188422692074 
77 1   0.0159350254966739    0.344131485356911    0.653538862257278   -0.204095138721894   -0.227180776997109    0.421059005999554 
78 1  0.00746526719433405    0.500618348444505    0.836301731715139  -0.0513781959017701   -0.358641522835261    0.189737367321034 
79 1     0.17185015653115    0.332899798590347    0.835125284815263   -0.154184453294373   -0.212515665235808   -0.281231897688347 
80 1    0.168977127855896    0.509652738362433    0.674529864275428    0.124496846011722   -0.118989238076656   -0.480313731577073 
81 1  0.00332003902690303    0.659257037458019    0.681338717971812   -0.110554602725396    0.332543649812752   -0.820366014729835 
82 1 -0.00684380902259818    0.827028179184936    0.835850764840529    0.159790720608987     0.28399977373116    0.132982429101583 
83 1    0.160826544386396    0.670181356087255    0.847067771453226    0.166983574627633   -0.196966413266793   -0.304985390890184 
84 1    0.165006305018665     0.84513836510655    0.672921617876796      -0.183336336033   -0.340686659224026   -0.188253536081377 
85 1    0.334147276094086 -0.00226771783167123    0.667635779986313    0.119488179253717    0.309879596979202  -0.0294296070414668 
86 1    0.333353133011769    0.161158755300448     0.82617934349048 -0.00967181218676583     0.18817642692174    0.148278179053612 
87 1    0.495967490448038   -0.012156596573675    0.836909519710275    0.054665527365417    0.469553139341475    0.072658839437824 
88 1    0.502183131235142     0.16577172413281     0.66454999699954   -0.233736878190713   0.0921262074224806    0.195628655728981 
89 1    0.337698331466186    0.343197398697953    0.652976256726674   -0.130209041931817   -0.310816560016202    0.208076369685931 
90 1    0.332906933655863    0.492574139928479    0.825014197387645     0.12477875422581    0.252005190579999    0.402479714764453 
91 1    0.497720706894484    0.327639597171242    0.834426037214598  -0.0122784439697062    0.101548101217509   -0.401897449402473 
92 1    0.493189607028739     0.50899541455442    0.662336835593578    0.259769221415933     -0.3513088058352  -0.0042129205171741 
93 1    0.328096609263639     0.67683116151602    0.672695183950395  -0.0211620835921837   -0.100146993291605   -0.127906344258057 
94 1    0.325384219590205    0.833995837433804    0.835347696031363    0.281871795693937  -0.0375265991641086    0.132239554404489 
95 1    0.496793929637761    0.660274208994338    0.837634313688113   0.0646379031414373  0.00504744514541512   -0.136212656832411 
96 1    0.500894065850503    0.840929405155748    0.676824729148393   -0.111046581076138    -0.36428667977187   -0.260603007055843 
97 1    0.668658267078854 -0.00420752263272561    0.679518175746693    0.157514321126965   0.0883267124559182   -0.305740985687872 
98 1    0.671268524585003    0.164671274165357    0.826570825901285   0.0523774073042301 -0.00576499240052326    0.153722074801022 
99 1    0.835197703446283 -0.00510412937615001    0.840542957246498  -0.0886736184696218   0.0717439872844043   -0.333445913099847 
100 1    0.841889932318736    0.169914643209836    0.662593911486624  -0.0951859662991014  -0.0159575782519286   0.0612320082884863 
101 1    0.667372708893026     0.32646803530713    0.658948852129242   0.0406197793989004    0.314838417168495    0.321245922093964 
102 1    0.664230003575085    0.492483707545375    0.829207212982624 -0.00491389088987669  -0.0253233445789515   0.0129066547949299 
103 1    0.845898972007149    0.330657283368168     0.83767624887264   -0.303825089520935   -0.123070430936345   -0.624914592885298 
104 1    0.833789228862315    0.490935816669776    0.671259196433653   0.0563707564155444   0.0970654822014798   -0.241791652234887 
105 1    0.661680425052282    0.663066316066761    0.673886687894765    0.288707809089865  -0.0841485003760086    -0.10060637763038 
106 1    0.666117760223074    0.817559268004402     0.83757305253846   0.0933210656599846    0.269119420687056    0.216061103403852 
107 1    0.837149457584701    0.655786432041737    0.833397120048744   -0.329805912964184     0.11429503617991     0.23799309795696 
108 1     0.83223403374484    0.825422372919434    0.680622873039624  -0.0199282061564151     0.24537939175594   -0.405307383392382 
ITEM: TIMESTEP
200
ITEM: NUMBER OF ATOMS
108
ITEM: BOX BOUNDS pp pp pp
2.4582790719077430e-02 1.2125417209280911e+01
2.4582790719077430e-02 1.2125417209280901e+01
2.4582790719077430e-02 1.2125417209280901e+01
ITEM: ATOMS id type xsu ysu zsu fx fy fz 
1 1  0.00711534681693138 -0.00192339891555093  0.00287536932103194   -0.201130347734094   0.0621469639143015    0.120510345744298 
2 1  -0.0092788780095816    0.175292936542064    0.159325418619687    0.544155641290118   -0.102786681602723   -0.010328068682115 
3 1    0.167150988806384  0.00776434796682679    0.177221127518351  -0.0516472067875614  -0.0795916380538421   -0.742735892492879 
4 1    0.168149995653494    0.173385178182912  -0.0169531489520978    0.137184770226512  -0.0572575140288936    0.673411626455517 