LAMMPS (17 Nov 2016)
units metal
dimension 3
boundary p p p
atom_style atomic
read_data structure.inp
  orthogonal box = (0 0 0) to (12.15 12.15 12.15)
  1 by 1 by 1 MPI processor grid
  reading atoms ...
  108 atoms
include potential.inp
pair_style eam/alloy
pair_coeff * * Al.lammps.eam Al
fix 1 all npt temp 200 200 1.0 iso 0.0 0.0 1.0
variable  dumptime equal 100
dump 1 all custom ${dumptime} dump.out id type xsu ysu zsu fx fy fz
dump 1 all custom 100 dump.out id type xsu ysu zsu fx fy fz
dump_modify 1 sort id format line "%d %d %20.15g %20.15g %20.15g %20.15g %20.15g %20.15g"
thermo_style custom step temp pe etotal pxx pyy pzz vol
thermo_modify format  float %20.15g
thermo 100
velocity all create 400 74549 dist gaussian
run 10000
Neighbor list info ...
  1 neighbor list requests
  update every 1 steps, delay 10 steps, check yes
  max neighbors/atom: 2000, page size: 100000
  master list distance cutoff = 8.5
  ghost atom cutoff = 8.5
  binsize = 4.25 -> bins = 3 3 3
Memory usage per processor = 3.93753 Mbytes
Step Temp PotEng TotEng Pxx Pyy Pzz Volume 
       0                  400    -362.880858320022    -357.348524114022    -15458.7720030628    -14902.2827678789    -15359.1109546632          1793.613375 
     100     227.355628564473    -360.527372116258    -357.382853814174     -972.14502391641     2106.15752032784     329.092385268055     1774.51676717724 
     200     201.994208779112    -360.163381235364    -357.369632558758     2731.05699611003     2060.88182711172      2013.5150463678     1771.92752693953 
     300     211.831888296332    -360.300202922433    -357.370390918574    -5416.52761549006    -3903.67779941138    -3971.65408378281     1787.23437561431 
     400     188.379382665045    -359.962843301156    -357.357399045099     7004.17906516028     6142.93456610541     5518.86110983597     1764.23980004366 
     500      185.87882668462     -359.93286356888    -357.362004091284    -4587.66052953614    -4335.85783068049    -4897.58423396169     1789.33755672062 
     600     208.080279511818    -360.246151213833     -357.36822709399     5640.48228298977     5216.36362479585     4536.35799404528     1765.04369894415 
     700     191.044608036802    -360.028301417075     -357.38599486729    -2266.35140530014    -2222.42022129147    -3418.08949029606     1784.28275382789 
     800     248.031133369745    -360.816582390203    -357.386104581967    -1849.00469567212    -2060.37894247751    -2236.17458909949     1777.68470446611 
     900     195.274409789006    -360.090449717565    -357.389641475484     1998.51451695804     1894.51380223672     1458.44162202192     1773.92882814173 
    1000     198.181492668924    -360.138101063884    -357.397085436663    -3296.80319380882    -1851.55329907902    -2655.83261116903     1783.29883292627 
    1100     195.290875594008    -360.116693259465    -357.415657281544     2984.34225542918     2916.79177976928     2103.80095681351     1772.06917319566 
    1200     195.790164173592    -360.138873435055    -357.430931878915    -178.200377923907    -288.796086542292     527.108464201386     1777.06866560802 
    1300     228.769431796658    -360.609635576957    -357.445563194918    -2525.72236072232    -1639.76841773121    -2740.32280966279     1780.18606190474 
    1400      231.75015128165    -360.664982485597    -357.459684262644     1483.75880280166     290.975122247372      248.47211664173     1772.39223071016 
    1500      202.49762402658    -360.281760198952    -357.481048868862    -3075.12649038246    -4314.26056628996    -3418.66330647126     1784.34696946907 
    1600      228.67321247922    -360.667017445816    -357.504275857329     3630.60137298179     2045.48340128104     2125.13569419552     1768.28430844177 
    1700     203.664401426128    -360.352060295376    -357.535211458991    -3188.42722344622    -4531.98509439054    -3979.87455385766       1784.997903318 
    1800     201.628708086787    -360.360666745939    -357.571973249289     2692.52766349425     1869.92786649898     2235.99578571084     1770.20733855409 
    1900     198.651642521627    -360.358222840259    -357.610704647757    -1215.84141293909    -1239.16630112989    -224.172849396725     1777.86944175895 
    2000     193.908308445402    -360.333855385398    -357.651941466298     -87.563369848343     840.910194999664     94.1056684618039     1774.95496334393 
    2100     195.608752398725    -360.403673176461     -357.69824069674       726.7332720203     700.363617725173     402.652944320528     1774.17572978852 
    2200     199.873652244505    -360.508166680376      -357.7437470724    -643.156115829669    -2191.54424977742    -1116.53428072442     1776.89914308695 
    2300      171.54165427668    -360.165638198446    -357.793073794174     2360.33742931416     1341.16794197206     1720.44080751489     1772.38403071379 
    2400     200.736944077272    -360.618536389926    -357.842176734609    -286.303123503138    -932.467142423543     -1652.8835498012     1775.35950560672 
    2500     180.525935083297    -360.386287033758     -357.88946251943    -728.119360467973    -2366.81403133539    -2060.03022115787      1777.9787151415 
    2600     179.301832889349    -360.402287479797    -357.922393321567     5525.78774074683     2628.09124961446      3431.0562549725     1766.12051963667 
    2700     160.457033346733    -360.177168702236    -357.957913866792    -1376.76897055116    -2494.04266204711    -2609.12035740683     1781.14835326757 
    2800     171.532448454589    -360.361992560037    -357.989555479976     3528.73046380866     2339.84142390455     3634.36586402921     1768.04868729046 
    2900     184.482574925329    -360.571795059704    -358.020246910528    -376.076240393993    -1718.54617513461    -335.874190337875      1775.6280045863 
    3000      196.68763378839    -360.757069752806    -358.036715442045    -1796.11771580279    -2792.30747287897    -1415.29669817416     1776.69341143631 
    3100     179.361941266656    -360.532139615661    -358.051414108351     2414.42268953872     1775.51066327243     2521.85945910557     1769.13355327009 
    3200     207.727835961525    -360.936170374721     -358.06312084365    -4524.66821371755    -3720.40005748454    -3027.04802912247     1779.78302447165 
    3300     199.653668901898    -360.838412877506    -358.077035822957     530.666175907634    -1504.13274138117    -135.513339332939     1772.85726541945 
    3400     192.274551966399    -360.740491258603    -358.081173556636     858.208364091919     576.018591267979     1337.75567272334     1770.37650850688 
    3500     188.149316952284    -360.668658567169    -358.066396312142     -5463.6212759248    -5736.22454466041    -4492.79091988047      1784.6584187576 
    3600     187.314178235243    -360.638408411851    -358.047696823052     5634.26509762115     5006.45871863146       6256.171675916     1760.61973281662 
    3700      175.38147981657    -360.459661107684    -358.033988707963     -5376.0040948078    -6647.45196599914     -5381.7407857895     1787.08082427512 
    3800     189.335122306342    -360.642586582812    -358.023923648981     2271.12453412615     2742.26117845021     3298.22827992411     1766.03015315538 
    3900     166.769299811964    -360.304065850405    -357.997507095754     35.5560399277223     326.945254078393    -368.872768726367     1775.18446020884 
    4000     187.023670598499    -360.537671703019     -357.95097807756    -2847.72298953027    -3609.05233659823    -3795.56791771044      1781.3529683781 
    4100     186.450069599797    -360.468490304372    -357.889730059977      5215.5129120102     4665.40283215815     5538.40339732196     1762.82200894367 
    4200     178.896964840642    -360.308638662715    -357.834344167872    -4839.02475303417    -5825.95923178436    -6020.64742945738     1787.73991735289 
    4300     185.387451549999    -360.349420830809    -357.785357481876     5449.95540298949     4652.93336895528     3993.06985875671     1764.99614493055 
    4400      195.92440717712    -360.445421935705    -357.735623686664    -1743.39439522761    -2870.55570404991    -2130.59124113042     1779.71711115762 
    4500     201.118908721583    -360.456715359945    -357.675072814461    -2123.37996867627    -3953.61797634374    -2101.93791246798     1780.26220217997 
    4600     197.412997836502    -360.314121021587    -357.583734319987     6161.36821995328     5871.73521646365     4917.41397210505     1763.22858171834 
    4700     187.092464282327    -360.103160254218    -357.515515154633    -6623.79631407663     -6877.4540782662    -5650.03664136438     1791.28519364643 
    4800     201.865833754957     -360.26270837783    -357.470735235067     7357.98664127304     5464.07276604173     6060.68570419412     1762.18050905918 
    4900     193.426243443411    -360.121148533333    -357.445901975983    -3714.69479319897    -2670.30962470387    -3372.47432582129     1784.95626275791 
    5000     191.556624616085    -360.066607465419    -357.417219298545     690.608796041466     63.9759011058167    -308.200852770787      1776.5642990042 
    5100     185.154772534742     -359.93184783412    -357.371002630374     5804.12687772326     5680.91226248534      5241.3616463684     1765.37827786038 
    5200     181.267664502675    -359.831494098929    -357.324410847004    -6572.96368751851    -4747.23106218081    -6655.43845844358     1791.73557071118 
    5300     199.099160822851    -360.055936959026     -357.30222921451     8834.89463765287     7487.44085959147     6896.89527909763     1759.53602362487 
    5400     205.256354065689    -360.150140790319    -357.311273918828    -4467.42361038955    -5297.61495196047    -4957.35350295802      1787.6744255072 
    5500      192.74975307064    -359.974023272938    -357.308133142661     570.305292126852     912.620096772844     2172.14058179312      1774.4037783412 
    5600     199.827088919769    -360.064404736784    -357.300629138494     2927.58677741134     3627.23730912046     4871.15580926564     1769.34055765523 
    5700     212.136844545044    -360.205741279648    -357.271711476075    -7169.70763453724    -7221.12618287541    -6335.12024179131     1791.91036415543 
    5800     210.280072913846    -360.172591077883    -357.264241977329     6615.92684586501     6312.43867812246     7503.04130576342     1761.34450223432 
    5900      192.32596925562    -359.945590454169    -357.285561608131    -5079.58480526447    -4411.55843044604    -3190.64306556118     1787.66008165553 
    6000     200.972748870397    -360.077257529852    -357.297636497228    -55.8570528194253     1872.08193600062     1224.70798993425     1775.04120414713 
    6100     206.442113297426    -360.152740354639    -357.297473442253     2448.49046009971     3857.31786338461     2149.30190739678     1770.76551462619 
    6200     204.094814564163    -360.105738966869    -357.282937157167    -3984.25799052246    -4245.23591430545    -5054.00913495273     1787.94823610794 
    6300      212.03883376976    -360.221588646695    -357.288914414033     4718.46060795705     4760.64434284982     5160.85813422584     1766.36864843628 
    6400     217.004947942015    -360.311663182046    -357.310303441119    -4102.18685914293    -3626.11425098618    -4668.88885096114     1784.91084464162 
    6500     220.416858515482    -360.368848839756    -357.320299524895    -831.781516740122     137.610902803729    -24.3795002871901      1776.8526745777 
    6600     197.170094988496    -360.057403473811    -357.330376321548     1995.28079805114     1635.85255564393     2560.86699323682     1773.83216044701 
    6700     201.529243635134    -360.124431240277    -357.337113420097    -3416.63320675709    -2416.10555775581    -2043.63982986196     1783.27220016536 
    6800     219.620626487209    -360.387852102549    -357.350315341903     1059.25348101064     1888.87825571128     1263.31032011507     1772.69503077164 
    6900     231.943226000391    -360.577425405534    -357.369456797904    -2637.73986586877    -3187.11231800292    -1444.03902223147      1779.7535895807 
    7000     203.363314012825    -360.196036919688    -357.383352373791    -1403.13866156883    -402.253696873804    -765.620135884934     1779.09108355877 
    7100     208.628214480317    -360.286693062132    -357.401190543867      1237.8967769039     1723.75566179651     2160.72524149906     1772.86338233775 
    7200     201.504393009836     -360.20717355483    -357.420199439561    -2407.34921792703    -414.417597551599    -1259.99347391416     1780.04467985556 
    7300     205.180970928709    -360.280346028078    -357.442521768355     945.773388172423     1428.29442267599     1767.94422770859     1773.37754490034 
    7400     197.074604269549    -360.192937708433    -357.467231272597    -792.363698594159    -25.5032553396108    -1354.41818320209      1778.5208324292 
    7500     212.439029541996    -360.429003039755    -357.490793765193    -382.165397600869    -22.6307722024174    -817.713213702154     1775.30359689045 
    7600     198.592205261481    -360.264904171712    -357.518208046179    -814.978639777992    -467.543512604173    -275.859287429109     1777.39737053212 
    7700     194.574930269373    -360.237154407828    -357.546020551929     883.470017009714     751.900151713882     896.051809658958     1774.94101688945 
    7800     204.502151038283     -360.40493469817    -357.576499084696     428.826116164497    -207.561098966301    -77.3417665433127     1775.49364861017 
    7900     202.078008833985    -360.403089173433    -357.608181472052    -1063.37844503688    -1632.15137808462    -1178.75026118622     1778.28071402576 
    8000     188.483592027603    -360.246660120727    -357.639774562117     1867.38005774075     2064.67131653369     727.258626268837      1773.2054552573 
    8100     187.768650058227    -360.271726524738    -357.674729210909    -442.582371396244    -34.1045410442853    -589.067358394123     1777.11161445695 
    8200     193.260730929346    -360.383180165572    -357.710222784579    -969.707658506297     1020.04341983574    -513.120002093265     1775.99642028006 
    8300     176.389649361353     -360.18666429697    -357.747048070104     1734.79865101305     2517.26870238865     1218.90875098894     1772.07987431037 
    8400     189.019069359465    -360.397079084512    -357.782787427003     -2043.9030811395    -1419.18539855147    -1773.57614242965     1778.87944209946 
    8500     200.842657489333    -360.598232019912    -357.820410259781     372.693909789097     831.392518353283     1542.93758120406     1771.58507447669 
    8600     187.081356269286    -360.446523428832    -357.859031962349    -554.120650145825    -626.865655459342    -2071.59485093329     1777.69372270771 
    8700     193.636108907794    -360.571853493599    -357.893704321531     380.210705927665    -140.189328181461     70.7464045431733     1773.55762491316 
    8800      185.23024662694    -360.491800036838    -357.929910963338    -355.940965349124    -34.8853437420915      647.05107927646     1774.15787886966 
    8900     200.806821447781    -360.739534709216    -357.962208591481    -2271.02175034096    -1574.45427000825    -2440.17946432504     1777.35948094756 
    9000     191.706188262975    -360.645184429636    -357.993727672564     1647.82157251034    -566.781376629254     269.203351223814     1772.47134720334 
    9100     165.002258832592    -360.306179688714    -358.024060587197     55.2180192248024     158.920633118101     760.235110257248     1774.81732255095 
    9200     173.923306270646    -360.455971564552    -358.050466923297     327.588144226106     548.270425457866    -276.457941427161     1773.81226194503 
    9300     188.603912358467    -360.683195550763    -358.074645861448     392.151411599841    -526.226952042494    -646.328329077427      1773.5391887791 
    9400     169.990072142875    -360.447624108387    -358.096519381396    -317.635755929712    -1638.49095124773    -980.594295898339     1776.57235874999 
    9500     183.119775879208    -360.645740887351    -358.113041387622      1824.9594992151     3553.34331792262     2486.57587374851     1767.55919708356 
    9600     183.457605646084    -360.665765264891    -358.128393297224    -2742.32121794604    -1970.69344200462    -4456.54756294585       1779.841006082 
    9700     178.527060450284    -360.610869367401    -358.141690959336     2435.76993578456     2026.89956861809     1105.94402157687     1769.91359227729 
    9800     181.971692437262    -360.661963640746     -358.14514309426    -351.967256962422     589.184323733476    -908.763084326064     1773.26119482768 
    9900      180.73396411895    -360.645661316247    -358.145959586544    -2580.15142373051    -2395.13389921249    -1771.76028465543     1777.66938018238 
   10000     191.436342640078    -360.780928446088    -358.133203879439     3880.60021003901     2907.95936174801     1677.45416721676      1766.4269267426 
Loop time of 2.73733 on 1 procs for 10000 steps with 108 atoms

Performance: 315.636 ns/day, 0.076 hours/ns, 3653.192 timesteps/s
99.8% CPU use with 1 MPI tasks x no OpenMP threads

MPI task timing breakdown:
Section |  min time  |  avg time  |  max time  |%varavg| %total
---------------------------------------------------------------
Pair    | 2.5535     | 2.5535     | 2.5535     |   0.0 | 93.29
Neigh   | 0          | 0          | 0          |   0.0 |  0.00
Comm    | 0.070007   | 0.070007   | 0.070007   |   0.0 |  2.56
Output  | 0.033743   | 0.033743   | 0.033743   |   0.0 |  1.23
Modify  | 0.06198    | 0.06198    | 0.06198    |   0.0 |  2.26
Other   |            | 0.01807    |            |       |  0.66

Nlocal:    108 ave 108 max 108 min
Histogram: 1 0 0 0 0 0 0 0 0 0
Nghost:    1580 ave 1580 max 1580 min
Histogram: 1 0 0 0 0 0 0 0 0 0
Neighs:    7560 ave 7560 max 7560 min
Histogram: 1 0 0 0 0 0 0 0 0 0

Total # of neighbors = 7560
Ave neighs/atom = 70
Neighbor list builds = 0
Dangerous builds = 0
Total wall time: 0:00:02
