 Entering Gaussian System, Link 0=g16
 Input=input.com
 Output=input.log
 Initial command:
 /apps/gent/CO7/skylake-ib/software/Gaussian/g16_E.01-intel-2018a/g16/l1.exe "/kyukon/scratch/gent/vo/000/gvo00003/vsc41947/pyiron/projects/testing_notebooks/water/ai_ref_hdf5/ai_ref/Gau-18226.inp" -scrdir="/kyukon/scratch/gent/vo/000/gvo00003/vsc41947/pyiron/projects/testing_notebooks/water/ai_ref_hdf5/ai_ref/"
 Entering Link 1 = /apps/gent/CO7/skylake-ib/software/Gaussian/g16_E.01-intel-2018a/g16/l1.exe.bin PID=     18228.
  
 Copyright (c) 1988,1990,1992,1993,1995,1998,2003,2009,2016,
            Gaussian, Inc.  All Rights Reserved.
  
 This is part of the Gaussian(R) 16 program.  It is based on
 the Gaussian(R) 09 system (copyright 2009, Gaussian, Inc.),
 the Gaussian(R) 03 system (copyright 2003, Gaussian, Inc.),
 the Gaussian(R) 98 system (copyright 1998, Gaussian, Inc.),
 the Gaussian(R) 94 system (copyright 1995, Gaussian, Inc.),
 the Gaussian 92(TM) system (copyright 1992, Gaussian, Inc.),
 the Gaussian 90(TM) system (copyright 1990, Gaussian, Inc.),
 the Gaussian 88(TM) system (copyright 1988, Gaussian, Inc.),
 the Gaussian 86(TM) system (copyright 1986, Carnegie Mellon
 University), and the Gaussian 82(TM) system (copyright 1983,
 Carnegie Mellon University). Gaussian is a federally registered
 trademark of Gaussian, Inc.
  
 This software contains proprietary and confidential information,
 including trade secrets, belonging to Gaussian, Inc.
  
 This software is provided under written license and may be
 used, copied, transmitted, or stored only in accord with that
 written license.
  
 The following legend is applicable only to US Government
 contracts under FAR:
  
                    RESTRICTED RIGHTS LEGEND
  
 Use, reproduction and disclosure by the US Government is
 subject to restrictions as set forth in subparagraphs (a)
 and (c) of the Commercial Computer Software - Restricted
 Rights clause in FAR 52.227-19.
  
 Gaussian, Inc.
 340 Quinnipiac St., Bldg. 40, Wallingford CT 06492
  
  
 ---------------------------------------------------------------
 Warning -- This program may not be used in any manner that
 competes with the business of Gaussian, Inc. or will provide
 assistance to any competitor of Gaussian, Inc.  The licensee
 of this program is prohibited from giving any competitor of
 Gaussian, Inc. access to this program.  By using this program,
 the user acknowledges that Gaussian, Inc. is engaged in the
 business of creating and licensing software in the field of
 computational chemistry and represents and warrants to the
 licensee that it is not a competitor of Gaussian, Inc. and that
 it will not use this program in any manner prohibited above.
 ---------------------------------------------------------------
  

 Cite this work as:
 Gaussian 16, Revision A.03,
 M. J. Frisch, G. W. Trucks, H. B. Schlegel, G. E. Scuseria, 
 M. A. Robb, J. R. Cheeseman, G. Scalmani, V. Barone, 
 G. A. Petersson, H. Nakatsuji, X. Li, M. Caricato, A. V. Marenich, 
 J. Bloino, B. G. Janesko, R. Gomperts, B. Mennucci, H. P. Hratchian, 
 J. V. Ortiz, A. F. Izmaylov, J. L. Sonnenberg, D. Williams-Young, 
 F. Ding, F. Lipparini, F. Egidi, J. Goings, B. Peng, A. Petrone, 
 T. Henderson, D. Ranasinghe, V. G. Zakrzewski, J. Gao, N. Rega, 
 G. Zheng, W. Liang, M. Hada, M. Ehara, K. Toyota, R. Fukuda, 
 J. Hasegawa, M. Ishida, T. Nakajima, Y. Honda, O. Kitao, H. Nakai, 
 T. Vreven, K. Throssell, J. A. Montgomery, Jr., J. E. Peralta, 
 F. Ogliaro, M. J. Bearpark, J. J. Heyd, E. N. Brothers, K. N. Kudin, 
 V. N. Staroverov, T. A. Keith, R. Kobayashi, J. Normand, 
 K. Raghavachari, A. P. Rendell, J. C. Burant, S. S. Iyengar, 
 J. Tomasi, M. Cossi, J. M. Millam, M. Klene, C. Adamo, R. Cammi, 
 J. W. Ochterski, R. L. Martin, K. Morokuma, O. Farkas, 
 J. B. Foresman, and D. J. Fox, Gaussian, Inc., Wallingford CT, 2016.
 
 ******************************************
 Gaussian 16:  ES64L-G16RevA.03 25-Dec-2016
                10-Mar-2020 
 ******************************************
 %mem=800MB
 %chk=input.chk
 ----------------------
 #n B3LYP/6-31+G(d) opt
 ----------------------
 1/18=20,19=15,26=3,38=1/1,3;
 2/9=110,12=2,17=6,18=5,40=1/2;
 3/5=1,6=6,7=11,11=2,25=1,30=1,71=1,74=-5/1,2,3;
 4//1;
 5/5=2,38=5/2;
 6/7=2,8=2,9=2,10=2,28=1/1;
 7//1,2,3,16;
 1/18=20,19=15,26=3/3(2);
 2/9=110/2;
 99//99;
 2/9=110/2;
 3/5=1,6=6,7=11,11=2,25=1,30=1,71=1,74=-5/1,2,3;
 4/5=5,16=3,69=1/1;
 5/5=2,38=5/2;
 7//1,2,3,16;
 1/18=20,19=15,26=3/3(-5);
 2/9=110/2;
 6/7=2,8=2,9=2,10=2,19=2,28=1/1;
 99/9=1/99;
 --------
 no title
 --------
 Symbolic Z-matrix:
 Charge =  0 Multiplicity = 1
 H                     1.        0.        0. 
 H                     0.        1.        0. 
 O                     0.        0.        0. 
 

 GradGradGradGradGradGradGradGradGradGradGradGradGradGradGradGradGradGrad
 Berny optimization.
 Initialization pass.
                           ----------------------------
                           !    Initial Parameters    !
                           ! (Angstroms and Degrees)  !
 --------------------------                            --------------------------
 ! Name  Definition              Value          Derivative Info.                !
 --------------------------------------------------------------------------------
 ! R1    R(1,3)                  1.0            estimate D2E/DX2                !
 ! R2    R(2,3)                  1.0            estimate D2E/DX2                !
 ! A1    A(1,3,2)               90.0            estimate D2E/DX2                !
 --------------------------------------------------------------------------------
 Trust Radius=3.00D-01 FncErr=1.00D-07 GrdErr=1.00D-06 EigMax=2.50D+02 EigMin=1.00D-04
 Number of steps in this run=     20 maximum allowed number of steps=    100.
 GradGradGradGradGradGradGradGradGradGradGradGradGradGradGradGradGradGrad

                          Input orientation:                          
 ---------------------------------------------------------------------
 Center     Atomic      Atomic             Coordinates (Angstroms)
 Number     Number       Type             X           Y           Z
 ---------------------------------------------------------------------
      1          1           0        1.000000    0.000000    0.000000
      2          1           0        0.000000    1.000000    0.000000
      3          8           0        0.000000    0.000000    0.000000
 ---------------------------------------------------------------------
                    Distance matrix (angstroms):
                    1          2          3
     1  H    0.000000
     2  H    1.414214   0.000000
     3  O    1.000000   1.000000   0.000000
 Stoichiometry    H2O
 Framework group  C2V[C2(O),SGV(H2)]
 Deg. of freedom     2
 Full point group                 C2V     NOp   4
 Largest Abelian subgroup         C2V     NOp   4
 Largest concise Abelian subgroup C2      NOp   2
                         Standard orientation:                         
 ---------------------------------------------------------------------
 Center     Atomic      Atomic             Coordinates (Angstroms)
 Number     Number       Type             X           Y           Z
 ---------------------------------------------------------------------
      1          1           0       -0.000000    0.707107   -0.565685
      2          1           0       -0.000000   -0.707107   -0.565685
      3          8           0       -0.000000   -0.000000    0.141421
 ---------------------------------------------------------------------
 Rotational constants (GHZ):         564.6475654         501.4551045         265.5892457
 Standard basis: 6-31+G(d) (6D, 7F)
 There are    12 symmetry adapted cartesian basis functions of A1  symmetry.
 There are     1 symmetry adapted cartesian basis functions of A2  symmetry.
 There are     4 symmetry adapted cartesian basis functions of B1  symmetry.
 There are     6 symmetry adapted cartesian basis functions of B2  symmetry.
 There are    12 symmetry adapted basis functions of A1  symmetry.
 There are     1 symmetry adapted basis functions of A2  symmetry.
 There are     4 symmetry adapted basis functions of B1  symmetry.
 There are     6 symmetry adapted basis functions of B2  symmetry.
    23 basis functions,    40 primitive gaussians,    23 cartesian basis functions
     5 alpha electrons        5 beta electrons
       nuclear repulsion energy         8.8410201690 Hartrees.
 NAtoms=    3 NActive=    3 NUniq=    2 SFac= 2.25D+00 NAtFMM=   60 NAOKFM=F Big=F
 Integral buffers will be    131072 words long.
 Raffenetti 2 integral format.
 Two-electron integral symmetry is turned on.
 One-electron integrals computed using PRISM.
 NBasis=    23 RedAO= T EigKep=  1.81D-02  NBF=    12     1     4     6
 NBsUse=    23 1.00D-06 EigRej= -1.00D+00 NBFU=    12     1     4     6
 ExpMin= 8.45D-02 ExpMax= 5.48D+03 ExpMxC= 8.25D+02 IAcc=3 IRadAn=         5 AccDes= 0.00D+00
 Harris functional with IExCor=  402 and IRadAn=       5 diagonalized for initial guess.
 HarFok:  IExCor=  402 AccDes= 0.00D+00 IRadAn=         5 IDoV= 1 UseB2=F ITyADJ=14
 ICtDFT=  3500011 ScaDFX=  1.000000  1.000000  1.000000  1.000000
 FoFCou: FMM=F IPFlag=           0 FMFlag=      100000 FMFlg1=           0
         NFxFlg=           0 DoJE=T BraDBF=F KetDBF=T FulRan=T
         wScrn=  0.000000 ICntrl=       500 IOpCl=  0 I1Cent=   200000004 NGrid=           0
         NMat0=    1 NMatS0=      1 NMatT0=    0 NMatD0=    1 NMtDS0=    0 NMtDT0=    0
 Petite list used in FoFCou.
 Initial guess orbital symmetries:
       Occupied  (A1) (A1) (B2) (A1) (B1)
       Virtual   (A1) (B2) (A1) (B1) (B2) (A1) (B2) (A1) (B1) (B2)
                 (A1) (A1) (A1) (A2) (B1) (A1) (B2) (A1)
 The electronic state of the initial guess is 1-A1.
 Keep R1 ints in memory in symmetry-blocked form, NReq=901872.
 Requested convergence on RMS density matrix=1.00D-08 within 128 cycles.
 Requested convergence on MAX density matrix=1.00D-06.
 Requested convergence on             energy=1.00D-06.
 No special actions if energy rises.
 Integral accuracy reduced to 1.0D-05 until final iterations.
 Initial convergence to 1.0D-05 achieved.  Increase integral accuracy.
 SCF Done:  E(RB3LYP) =  -76.4153261774     A.U. after   10 cycles
            NFock= 10  Conv=0.12D-08     -V/T= 2.0100

 **********************************************************************

            Population analysis using the SCF density.

 **********************************************************************

 Orbital symmetries:
       Occupied  (A1) (A1) (B2) (A1) (B1)
       Virtual   (A1) (B2) (B1) (A1) (B2) (A1) (B2) (A1) (B1) (B2)
                 (A1) (A1) (A1) (A2) (B1) (A1) (B2) (A1)
 The electronic state is 1-A1.
 Alpha  occ. eigenvalues --  -19.17928  -1.02104  -0.50275  -0.42236  -0.32016
 Alpha virt. eigenvalues --    0.01484   0.11094   0.15525   0.15636   0.18132
 Alpha virt. eigenvalues --    0.24785   0.87972   1.01811   1.11222   1.11650
 Alpha virt. eigenvalues --    1.17679   1.29696   1.68701   1.74087   1.74707
 Alpha virt. eigenvalues --    2.26738   2.50805   3.66543
          Condensed to atoms (all electrons):
               1          2          3
     1  H    0.390318  -0.022792   0.196181
     2  H   -0.022792   0.390318   0.196181
     3  O    0.196181   0.196181   8.480222
 Mulliken charges:
               1
     1  H    0.436292
     2  H    0.436292
     3  O   -0.872585
 Sum of Mulliken charges =  -0.00000
 Mulliken charges with hydrogens summed into heavy atoms:
               1
     3  O   -0.000000
 Electronic spatial extent (au):  <R**2>=             20.5957
 Charge=             -0.0000 electrons
 Dipole moment (field-independent basis, Debye):
    X=             -0.0000    Y=             -0.0000    Z=             -2.4994  Tot=              2.4994
 Quadrupole moment (field-independent basis, Debye-Ang):
   XX=             -7.9833   YY=             -5.0573   ZZ=             -6.0155
   XY=              0.0000   XZ=              0.0000   YZ=              0.0000
 Traceless Quadrupole moment (field-independent basis, Debye-Ang):
   XX=             -1.6313   YY=              1.2947   ZZ=              0.3365
   XY=              0.0000   XZ=              0.0000   YZ=              0.0000
 Octapole moment (field-independent basis, Debye-Ang**2):
  XXX=              0.0000  YYY=             -0.0000  ZZZ=             -1.9218  XYY=             -0.0000
  XXY=             -0.0000  XXZ=             -0.5368  XZZ=             -0.0000  YZZ=             -0.0000
  YYZ=             -1.3622  XYZ=             -0.0000
 Hexadecapole moment (field-independent basis, Debye-Ang**3):
 XXXX=             -7.9780 YYYY=             -7.1452 ZZZZ=             -8.1954 XXXY=             -0.0000
 XXXZ=             -0.0000 YYYX=             -0.0000 YYYZ=              0.0000 ZZZX=             -0.0000
 ZZZY=              0.0000 XXYY=             -2.6914 XXZZ=             -2.7954 YYZZ=             -2.1027
 XXYZ=              0.0000 YYXZ=              0.0000 ZZXY=              0.0000
 N-N= 8.841020169011D+00 E-N=-1.978893938163D+02  KE= 7.565715432324D+01
 Symmetry A1   KE= 6.753851758877D+01
 Symmetry A2   KE= 4.114679514489D-35
 Symmetry B1   KE= 4.495058611269D+00
 Symmetry B2   KE= 3.623578123201D+00
 Calling FoFJK, ICntrl=      2127 FMM=F ISym2X=1 I1Cent= 0 IOpClX= 0 NMat=1 NMatS=1 NMatT=0.
 ***** Axes restored to original set *****
 -------------------------------------------------------------------
 Center     Atomic                   Forces (Hartrees/Bohr)
 Number     Number              X              Y              Z
 -------------------------------------------------------------------
      1        1          -0.018515228   -0.024545383   -0.000000000
      2        1          -0.024545383   -0.018515228   -0.000000000
      3        8           0.043060610    0.043060610    0.000000000
 -------------------------------------------------------------------
 Cartesian Forces:  Max     0.043060610 RMS     0.024942180

 GradGradGradGradGradGradGradGradGradGradGradGradGradGradGradGradGradGrad
 Berny optimization.
 FormGI is forming the generalized inverse of G from B-inverse, IUseBI=4.
 Internal  Forces:  Max     0.046384051 RMS     0.030752276
 Search for a local minimum.
 Step number   1 out of a maximum of   20
 All quantities printed in internal units (Hartrees-Bohrs-Radians)
 Mixed Optimization -- RFO/linear search
 Second derivative matrix not updated -- first step.
 The second derivative matrix:
                          R1        R2        A1
           R1           0.47688
           R2           0.00000   0.47688
           A1           0.00000   0.00000   0.16000
 ITU=  0
     Eigenvalues ---    0.16000   0.47688   0.47688
 RFO step:  Lambda=-1.37779771D-02 EMin= 1.60000000D-01
 Linear search not attempted -- first point.
 Iteration  1 RMS(Cart)=  0.11508767 RMS(Int)=  0.03792110
 Iteration  2 RMS(Cart)=  0.03494504 RMS(Int)=  0.00080729
 Iteration  3 RMS(Cart)=  0.00077357 RMS(Int)=  0.00000008
 Iteration  4 RMS(Cart)=  0.00000007 RMS(Int)=  0.00000000
 ClnCor:  largest displacement from symmetrization is 6.71D-16 for atom     2.
 Variable       Old X    -DE/DX   Delta X   Delta X   Delta X     New X
                                 (Linear)    (Quad)   (Total)
    R1        1.88973  -0.01852   0.00000  -0.03774  -0.03774   1.85199
    R2        1.88973  -0.01852   0.00000  -0.03774  -0.03774   1.85199
    A1        1.57080   0.04638   0.00000   0.26692   0.26692   1.83771
         Item               Value     Threshold  Converged?
 Maximum Force            0.046384     0.000450     NO 
 RMS     Force            0.030752     0.000300     NO 
 Maximum Displacement     0.146218     0.001800     NO 
 RMS     Displacement     0.149530     0.001200     NO 
 Predicted change in Energy=-7.399408D-03
 GradGradGradGradGradGradGradGradGradGradGradGradGradGradGradGradGradGrad

                          Input orientation:                          
 ---------------------------------------------------------------------
 Center     Atomic      Atomic             Coordinates (Angstroms)
 Number     Number       Type             X           Y           Z
 ---------------------------------------------------------------------
      1          1           0        1.024346   -0.077375   -0.000000
      2          1           0       -0.077375    1.024346    0.000000
      3          8           0        0.053029    0.053029   -0.000000
 ---------------------------------------------------------------------
                    Distance matrix (angstroms):
                    1          2          3
     1  H    0.000000
     2  H    1.558070   0.000000
     3  O    0.980031   0.980031   0.000000
 Stoichiometry    H2O
 Framework group  C2V[C2(O),SGV(H2)]
 Deg. of freedom     2
 Full point group                 C2V     NOp   4
 Largest Abelian subgroup         C2V     NOp   4
 Largest concise Abelian subgroup C2      NOp   2
                         Standard orientation:                         
 ---------------------------------------------------------------------
 Center     Atomic      Atomic             Coordinates (Angstroms)
 Number     Number       Type             X           Y           Z
 ---------------------------------------------------------------------
      1          1           0       -0.000000    0.779035   -0.475692
      2          1           0       -0.000000   -0.779035   -0.475692
      3          8           0        0.000000   -0.000000    0.118923
 ---------------------------------------------------------------------
 Rotational constants (GHZ):         798.5031434         413.1315474         272.2659245
 Standard basis: 6-31+G(d) (6D, 7F)
 There are    12 symmetry adapted cartesian basis functions of A1  symmetry.
 There are     1 symmetry adapted cartesian basis functions of A2  symmetry.
 There are     4 symmetry adapted cartesian basis functions of B1  symmetry.
 There are     6 symmetry adapted cartesian basis functions of B2  symmetry.
 There are    12 symmetry adapted basis functions of A1  symmetry.
 There are     1 symmetry adapted basis functions of A2  symmetry.
 There are     4 symmetry adapted basis functions of B1  symmetry.
 There are     6 symmetry adapted basis functions of B2  symmetry.
    23 basis functions,    40 primitive gaussians,    23 cartesian basis functions
     5 alpha electrons        5 beta electrons
       nuclear repulsion energy         8.9789878870 Hartrees.
 NAtoms=    3 NActive=    3 NUniq=    2 SFac= 2.25D+00 NAtFMM=   60 NAOKFM=F Big=F
 Integral buffers will be    131072 words long.
 Raffenetti 2 integral format.
 Two-electron integral symmetry is turned on.
 One-electron integrals computed using PRISM.
 NBasis=    23 RedAO= T EigKep=  1.87D-02  NBF=    12     1     4     6
 NBsUse=    23 1.00D-06 EigRej= -1.00D+00 NBFU=    12     1     4     6
 Initial guess from the checkpoint file:  "input.chk"
 B after Tr=    -0.000000   -0.000000   -0.000000
         Rot=    1.000000    0.000000   -0.000000   -0.000000 Ang=   0.00 deg.
 Initial guess orbital symmetries:
       Occupied  (A1) (A1) (B2) (A1) (B1)
       Virtual   (A1) (B2) (B1) (A1) (B2) (A1) (B2) (A1) (B1) (B2)
                 (A1) (A1) (A1) (A2) (B1) (A1) (B2) (A1)
 ExpMin= 8.45D-02 ExpMax= 5.48D+03 ExpMxC= 8.25D+02 IAcc=2 IRadAn=         4 AccDes= 0.00D+00
 Harris functional with IExCor=  402 and IRadAn=       4 diagonalized for initial guess.
 HarFok:  IExCor=  402 AccDes= 0.00D+00 IRadAn=         4 IDoV= 1 UseB2=F ITyADJ=14
 ICtDFT=  3500011 ScaDFX=  1.000000  1.000000  1.000000  1.000000
 FoFCou: FMM=F IPFlag=           0 FMFlag=      100000 FMFlg1=           0
         NFxFlg=           0 DoJE=T BraDBF=F KetDBF=T FulRan=T
         wScrn=  0.000000 ICntrl=       500 IOpCl=  0 I1Cent=   200000004 NGrid=           0
         NMat0=    1 NMatS0=      1 NMatT0=    0 NMatD0=    1 NMtDS0=    0 NMtDT0=    0
 Petite list used in FoFCou.
 Keep R1 ints in memory in symmetry-blocked form, NReq=901872.
 Requested convergence on RMS density matrix=1.00D-08 within 128 cycles.
 Requested convergence on MAX density matrix=1.00D-06.
 Requested convergence on             energy=1.00D-06.
 No special actions if energy rises.
 Integral accuracy reduced to 1.0D-05 until final iterations.
 Initial convergence to 1.0D-05 achieved.  Increase integral accuracy.
 SCF Done:  E(RB3LYP) =  -76.4223570488     A.U. after    9 cycles
            NFock=  9  Conv=0.26D-08     -V/T= 2.0097
 Calling FoFJK, ICntrl=      2127 FMM=F ISym2X=1 I1Cent= 0 IOpClX= 0 NMat=1 NMatS=1 NMatT=0.
 ***** Axes restored to original set *****
 -------------------------------------------------------------------
 Center     Atomic                   Forces (Hartrees/Bohr)
 Number     Number              X              Y              Z
 -------------------------------------------------------------------
      1        1          -0.010082055    0.001679991   -0.000000000
      2        1           0.001679991   -0.010082055   -0.000000000
      3        8           0.008402063    0.008402063    0.000000000
 -------------------------------------------------------------------
 Cartesian Forces:  Max     0.010082055 RMS     0.006237251

 GradGradGradGradGradGradGradGradGradGradGradGradGradGradGradGradGradGrad
 Berny optimization.
 Using GEDIIS/GDIIS optimizer.
 FormGI is forming the generalized inverse of G from B-inverse, IUseBI=4.
 Internal  Forces:  Max     0.010215945 RMS     0.008348454
 Search for a local minimum.
 Step number   2 out of a maximum of   20
 All quantities printed in internal units (Hartrees-Bohrs-Radians)
 Mixed Optimization -- RFO/linear search
 Update second derivatives using D2CorX and points    1    2
 DE= -7.03D-03 DEPred=-7.40D-03 R= 9.50D-01
 TightC=F SS=  1.41D+00  RLast= 2.72D-01 DXNew= 5.0454D-01 8.1659D-01
 Trust test= 9.50D-01 RLast= 2.72D-01 DXMaxT set to 5.05D-01
 The second derivative matrix:
                          R1        R2        A1
           R1           0.45673
           R2          -0.02015   0.45673
           A1           0.03063   0.03063   0.18468
 ITU=  1  0
 Use linear search instead of GDIIS.
     Eigenvalues ---    0.17744   0.44382   0.47688
 RFO step:  Lambda=-4.52571087D-04 EMin= 1.77442716D-01
 Quartic linear search produced a step of  0.05030.
 Iteration  1 RMS(Cart)=  0.01557915 RMS(Int)=  0.00004316
 Iteration  2 RMS(Cart)=  0.00004518 RMS(Int)=  0.00000000
 Iteration  3 RMS(Cart)=  0.00000000 RMS(Int)=  0.00000000
 ClnCor:  largest displacement from symmetrization is 7.69D-15 for atom     2.
 Variable       Old X    -DE/DX   Delta X   Delta X   Delta X     New X
                                 (Linear)    (Quad)   (Total)
    R1        1.85199  -0.01022  -0.00190  -0.02194  -0.02384   1.82816
    R2        1.85199  -0.01022  -0.00190  -0.02194  -0.02384   1.82816
    A1        1.83771  -0.00060   0.01342  -0.00775   0.00568   1.84339
         Item               Value     Threshold  Converged?
 Maximum Force            0.010216     0.000450     NO 
 RMS     Force            0.008348     0.000300     NO 
 Maximum Displacement     0.015557     0.001800     NO 
 RMS     Displacement     0.015599     0.001200     NO 
 Predicted change in Energy=-2.408825D-04
 GradGradGradGradGradGradGradGradGradGradGradGradGradGradGradGradGradGrad

                          Input orientation:                          
 ---------------------------------------------------------------------
 Center     Atomic      Atomic             Coordinates (Angstroms)
 Number     Number       Type             X           Y           Z
 ---------------------------------------------------------------------
      1          1           0        1.016114   -0.073781   -0.000000
      2          1           0       -0.073781    1.016114    0.000000
      3          8           0        0.057667    0.057667    0.000000
 ---------------------------------------------------------------------
                    Distance matrix (angstroms):
                    1          2          3
     1  H    0.000000
     2  H    1.541344   0.000000
     3  O    0.967418   0.967418   0.000000
 Stoichiometry    H2O
 Framework group  C2V[C2(O),SGV(H2)]
 Deg. of freedom     2
 Full point group                 C2V     NOp   4
 Largest Abelian subgroup         C2V     NOp   4
 Largest concise Abelian subgroup C2      NOp   2
                         Standard orientation:                         
 ---------------------------------------------------------------------
 Center     Atomic      Atomic             Coordinates (Angstroms)
 Number     Number       Type             X           Y           Z
 ---------------------------------------------------------------------
      1          1           0       -0.000000    0.770672   -0.467821
      2          1           0       -0.000000   -0.770672   -0.467821
      3          8           0       -0.000000   -0.000000    0.116955
 ---------------------------------------------------------------------
 Rotational constants (GHZ):         825.5980390         422.1462947         279.3225693
 Standard basis: 6-31+G(d) (6D, 7F)
 There are    12 symmetry adapted cartesian basis functions of A1  symmetry.
 There are     1 symmetry adapted cartesian basis functions of A2  symmetry.
 There are     4 symmetry adapted cartesian basis functions of B1  symmetry.
 There are     6 symmetry adapted cartesian basis functions of B2  symmetry.
 There are    12 symmetry adapted basis functions of A1  symmetry.
 There are     1 symmetry adapted basis functions of A2  symmetry.
 There are     4 symmetry adapted basis functions of B1  symmetry.
 There are     6 symmetry adapted basis functions of B2  symmetry.
    23 basis functions,    40 primitive gaussians,    23 cartesian basis functions
     5 alpha electrons        5 beta electrons
       nuclear repulsion energy         9.0953129468 Hartrees.
 NAtoms=    3 NActive=    3 NUniq=    2 SFac= 2.25D+00 NAtFMM=   60 NAOKFM=F Big=F
 Integral buffers will be    131072 words long.
 Raffenetti 2 integral format.
 Two-electron integral symmetry is turned on.
 One-electron integrals computed using PRISM.
 NBasis=    23 RedAO= T EigKep=  1.81D-02  NBF=    12     1     4     6
 NBsUse=    23 1.00D-06 EigRej= -1.00D+00 NBFU=    12     1     4     6
 Initial guess from the checkpoint file:  "input.chk"
 B after Tr=     0.000000   -0.000000    0.000000
         Rot=    1.000000   -0.000000   -0.000000    0.000000 Ang=   0.00 deg.
 Initial guess orbital symmetries:
       Occupied  (A1) (A1) (B2) (A1) (B1)
       Virtual   (A1) (B2) (A1) (B1) (B2) (A1) (B2) (A1) (B1) (B2)
                 (A1) (A1) (A1) (A2) (B1) (A1) (B2) (A1)
 Keep R1 ints in memory in symmetry-blocked form, NReq=901872.
 Requested convergence on RMS density matrix=1.00D-08 within 128 cycles.
 Requested convergence on MAX density matrix=1.00D-06.
 Requested convergence on             energy=1.00D-06.
 No special actions if energy rises.
 SCF Done:  E(RB3LYP) =  -76.4225692527     A.U. after    7 cycles
            NFock=  7  Conv=0.26D-08     -V/T= 2.0092
 Calling FoFJK, ICntrl=      2127 FMM=F ISym2X=1 I1Cent= 0 IOpClX= 0 NMat=1 NMatS=1 NMatT=0.
 ***** Axes restored to original set *****
 -------------------------------------------------------------------
 Center     Atomic                   Forces (Hartrees/Bohr)
 Number     Number              X              Y              Z
 -------------------------------------------------------------------
      1        1           0.001393477   -0.000071846   -0.000000000
      2        1          -0.000071846    0.001393477   -0.000000000
      3        8          -0.001321631   -0.001321631    0.000000000
 -------------------------------------------------------------------
 Cartesian Forces:  Max     0.001393477 RMS     0.000905986

 GradGradGradGradGradGradGradGradGradGradGradGradGradGradGradGradGradGrad
 Berny optimization.
 Using GEDIIS/GDIIS optimizer.
 FormGI is forming the generalized inverse of G from B-inverse, IUseBI=4.
 Internal  Forces:  Max     0.001390316 RMS     0.001142019
 Search for a local minimum.
 Step number   3 out of a maximum of   20
 All quantities printed in internal units (Hartrees-Bohrs-Radians)
 Mixed Optimization -- RFO/linear search
 Update second derivatives using D2CorX and points    1    2    3
 DE= -2.12D-04 DEPred=-2.41D-04 R= 8.81D-01
 TightC=F SS=  1.41D+00  RLast= 3.42D-02 DXNew= 8.4853D-01 1.0255D-01
 Trust test= 8.81D-01 RLast= 3.42D-02 DXMaxT set to 5.05D-01
 The second derivative matrix:
                          R1        R2        A1
           R1           0.48547
           R2           0.00858   0.48547
           A1           0.02987   0.02987   0.18331
 ITU=  1  1  0
 Use linear search instead of GDIIS.
     Eigenvalues ---    0.17767   0.47688   0.49969
 RFO step:  Lambda=-3.37288218D-07 EMin= 1.77665595D-01
 Quartic linear search produced a step of -0.11776.
 Iteration  1 RMS(Cart)=  0.00176473 RMS(Int)=  0.00000197
 Iteration  2 RMS(Cart)=  0.00000219 RMS(Int)=  0.00000000
 Iteration  3 RMS(Cart)=  0.00000000 RMS(Int)=  0.00000000
 ClnCor:  largest displacement from symmetrization is 6.87D-16 for atom     2.
 Variable       Old X    -DE/DX   Delta X   Delta X   Delta X     New X
                                 (Linear)    (Quad)   (Total)
    R1        1.82816   0.00139   0.00281   0.00002   0.00283   1.83098
    R2        1.82816   0.00139   0.00281   0.00002   0.00283   1.83098
    A1        1.84339  -0.00022  -0.00067  -0.00136  -0.00203   1.84136
         Item               Value     Threshold  Converged?
 Maximum Force            0.001390     0.000450     NO 
 RMS     Force            0.001142     0.000300     NO 
 Maximum Displacement     0.001551     0.001800     YES
 RMS     Displacement     0.001764     0.001200     NO 
 Predicted change in Energy=-4.316387D-06
 GradGradGradGradGradGradGradGradGradGradGradGradGradGradGradGradGradGrad

                          Input orientation:                          
 ---------------------------------------------------------------------
 Center     Atomic      Atomic             Coordinates (Angstroms)
 Number     Number       Type             X           Y           Z
 ---------------------------------------------------------------------
      1          1           0        1.016934   -0.073805   -0.000000
      2          1           0       -0.073805    1.016934    0.000000
      3          8           0        0.056871    0.056871    0.000000
 ---------------------------------------------------------------------
                    Distance matrix (angstroms):
                    1          2          3
     1  H    0.000000
     2  H    1.542539   0.000000
     3  O    0.968915   0.968915   0.000000
 Stoichiometry    H2O
 Framework group  C2V[C2(O),SGV(H2)]
 Deg. of freedom     2
 Full point group                 C2V     NOp   4
 Largest Abelian subgroup         C2V     NOp   4
 Largest concise Abelian subgroup C2      NOp   2
                         Standard orientation:                         
 ---------------------------------------------------------------------
 Center     Atomic      Atomic             Coordinates (Angstroms)
 Number     Number       Type             X           Y           Z
 ---------------------------------------------------------------------
      1          1           0       -0.000000    0.771269   -0.469172
      2          1           0       -0.000000   -0.771269   -0.469172
      3          8           0       -0.000000   -0.000000    0.117293
 ---------------------------------------------------------------------
 Rotational constants (GHZ):         820.8501391         421.4925510         278.4917736
 Standard basis: 6-31+G(d) (6D, 7F)
 There are    12 symmetry adapted cartesian basis functions of A1  symmetry.
 There are     1 symmetry adapted cartesian basis functions of A2  symmetry.
 There are     4 symmetry adapted cartesian basis functions of B1  symmetry.
 There are     6 symmetry adapted cartesian basis functions of B2  symmetry.
 There are    12 symmetry adapted basis functions of A1  symmetry.
 There are     1 symmetry adapted basis functions of A2  symmetry.
 There are     4 symmetry adapted basis functions of B1  symmetry.
 There are     6 symmetry adapted basis functions of B2  symmetry.
    23 basis functions,    40 primitive gaussians,    23 cartesian basis functions
     5 alpha electrons        5 beta electrons
       nuclear repulsion energy         9.0815227576 Hartrees.
 NAtoms=    3 NActive=    3 NUniq=    2 SFac= 2.25D+00 NAtFMM=   60 NAOKFM=F Big=F
 Integral buffers will be    131072 words long.
 Raffenetti 2 integral format.
 Two-electron integral symmetry is turned on.
 One-electron integrals computed using PRISM.
 NBasis=    23 RedAO= T EigKep=  1.82D-02  NBF=    12     1     4     6
 NBsUse=    23 1.00D-06 EigRej= -1.00D+00 NBFU=    12     1     4     6
 Initial guess from the checkpoint file:  "input.chk"
 B after Tr=    -0.000000    0.000000   -0.000000
         Rot=    1.000000   -0.000000    0.000000   -0.000000 Ang=   0.00 deg.
 Initial guess orbital symmetries:
       Occupied  (A1) (A1) (B2) (A1) (B1)
       Virtual   (A1) (B2) (B1) (A1) (B2) (A1) (B2) (A1) (B2) (B1)
                 (A1) (A1) (A1) (A2) (B1) (A1) (B2) (A1)
 Keep R1 ints in memory in symmetry-blocked form, NReq=901872.
 Requested convergence on RMS density matrix=1.00D-08 within 128 cycles.
 Requested convergence on MAX density matrix=1.00D-06.
 Requested convergence on             energy=1.00D-06.
 No special actions if energy rises.
 SCF Done:  E(RB3LYP) =  -76.4225734227     A.U. after    6 cycles
            NFock=  6  Conv=0.86D-08     -V/T= 2.0092
 Calling FoFJK, ICntrl=      2127 FMM=F ISym2X=1 I1Cent= 0 IOpClX= 0 NMat=1 NMatS=1 NMatT=0.
 ***** Axes restored to original set *****
 -------------------------------------------------------------------
 Center     Atomic                   Forces (Hartrees/Bohr)
 Number     Number              X              Y              Z
 -------------------------------------------------------------------
      1        1          -0.000001973    0.000020458   -0.000000000
      2        1           0.000020458   -0.000001973   -0.000000000
      3        8          -0.000018485   -0.000018485    0.000000000
 -------------------------------------------------------------------
 Cartesian Forces:  Max     0.000020458 RMS     0.000013031

 GradGradGradGradGradGradGradGradGradGradGradGradGradGradGradGradGradGrad
 Berny optimization.
 Using GEDIIS/GDIIS optimizer.
 FormGI is forming the generalized inverse of G from B-inverse, IUseBI=4.
 Internal  Forces:  Max     0.000036628 RMS     0.000021495
 Search for a local minimum.
 Step number   4 out of a maximum of   20
 All quantities printed in internal units (Hartrees-Bohrs-Radians)
 Mixed Optimization -- En-DIIS/RFO-DIIS
 Update second derivatives using D2CorX and points    1    2    3    4
 DE= -4.17D-06 DEPred=-4.32D-06 R= 9.66D-01
 TightC=F SS=  1.41D+00  RLast= 4.49D-03 DXNew= 8.4853D-01 1.3463D-02
 Trust test= 9.66D-01 RLast= 4.49D-03 DXMaxT set to 5.05D-01
 The second derivative matrix:
                          R1        R2        A1
           R1           0.49738
           R2           0.02050   0.49738
           A1           0.03458   0.03458   0.18463
 ITU=  1  1  1  0
 Use linear search instead of GDIIS.
     Eigenvalues ---    0.17760   0.47688   0.52491
 RFO step:  Lambda= 0.00000000D+00 EMin= 1.77600564D-01
 Quartic linear search produced a step of  0.00581.
 Iteration  1 RMS(Cart)=  0.00011224 RMS(Int)=  0.00000001
 Iteration  2 RMS(Cart)=  0.00000001 RMS(Int)=  0.00000000
 ClnCor:  largest displacement from symmetrization is 9.17D-15 for atom     2.
 Variable       Old X    -DE/DX   Delta X   Delta X   Delta X     New X
                                 (Linear)    (Quad)   (Total)
    R1        1.83098  -0.00000   0.00002  -0.00001   0.00000   1.83099
    R2        1.83098  -0.00000   0.00002  -0.00001   0.00000   1.83099
    A1        1.84136  -0.00004  -0.00001  -0.00019  -0.00020   1.84116
         Item               Value     Threshold  Converged?
 Maximum Force            0.000037     0.000450     YES
 RMS     Force            0.000021     0.000300     YES
 Maximum Displacement     0.000111     0.001800     YES
 RMS     Displacement     0.000112     0.001200     YES
 Predicted change in Energy=-3.642407D-09
 Optimization completed.
    -- Stationary point found.
                           ----------------------------
                           !   Optimized Parameters   !
                           ! (Angstroms and Degrees)  !
 --------------------------                            --------------------------
 ! Name  Definition              Value          Derivative Info.                !
 --------------------------------------------------------------------------------
 ! R1    R(1,3)                  0.9689         -DE/DX =    0.0                 !
 ! R2    R(2,3)                  0.9689         -DE/DX =    0.0                 !
 ! A1    A(1,3,2)              105.5021         -DE/DX =    0.0                 !
 --------------------------------------------------------------------------------
 GradGradGradGradGradGradGradGradGradGradGradGradGradGradGradGradGradGrad

                          Input orientation:                          
 ---------------------------------------------------------------------
 Center     Atomic      Atomic             Coordinates (Angstroms)
 Number     Number       Type             X           Y           Z
 ---------------------------------------------------------------------
      1          1           0        1.016934   -0.073805   -0.000000
      2          1           0       -0.073805    1.016934    0.000000
      3          8           0        0.056871    0.056871    0.000000
 ---------------------------------------------------------------------
                    Distance matrix (angstroms):
                    1          2          3
     1  H    0.000000
     2  H    1.542539   0.000000
     3  O    0.968915   0.968915   0.000000
 Stoichiometry    H2O
 Framework group  C2V[C2(O),SGV(H2)]
 Deg. of freedom     2
 Full point group                 C2V     NOp   4
 Largest Abelian subgroup         C2V     NOp   4
 Largest concise Abelian subgroup C2      NOp   2
                         Standard orientation:                         
 ---------------------------------------------------------------------
 Center     Atomic      Atomic             Coordinates (Angstroms)
 Number     Number       Type             X           Y           Z
 ---------------------------------------------------------------------
      1          1           0       -0.000000    0.771269   -0.469172
      2          1           0       -0.000000   -0.771269   -0.469172
      3          8           0        0.000000   -0.000000    0.117293
 ---------------------------------------------------------------------
 Rotational constants (GHZ):         820.8501391         421.4925510         278.4917736

 **********************************************************************

            Population analysis using the SCF density.

 **********************************************************************

 Orbital symmetries:
       Occupied  (A1) (A1) (B2) (A1) (B1)
       Virtual   (A1) (B2) (B1) (A1) (B2) (A1) (B2) (A1) (B2) (B1)
                 (A1) (A1) (A1) (A2) (B1) (A1) (B2) (A1)
 The electronic state is 1-A1.
 Alpha  occ. eigenvalues --  -19.16895  -1.02228  -0.54355  -0.39490  -0.31926
 Alpha virt. eigenvalues --    0.02489   0.11344   0.15547   0.15557   0.20367
 Alpha virt. eigenvalues --    0.23943   0.94705   1.03186   1.11169   1.11382
 Alpha virt. eigenvalues --    1.14374   1.24353   1.71233   1.72084   1.75828
 Alpha virt. eigenvalues --    2.27095   2.63643   3.67481
          Condensed to atoms (all electrons):
               1          2          3
     1  H    0.330827  -0.022406   0.227789
     2  H   -0.022406   0.330827   0.227789
     3  O    0.227789   0.227789   8.472001
 Mulliken charges:
               1
     1  H    0.463790
     2  H    0.463790
     3  O   -0.927579
 Sum of Mulliken charges =  -0.00000
 Mulliken charges with hydrogens summed into heavy atoms:
               1
     3  O   -0.000000
 Electronic spatial extent (au):  <R**2>=             20.2149
 Charge=             -0.0000 electrons
 Dipole moment (field-independent basis, Debye):
    X=             -0.0000    Y=              0.0000    Z=             -2.2492  Tot=              2.2492
 Quadrupole moment (field-independent basis, Debye-Ang):
   XX=             -7.9451   YY=             -4.3535   ZZ=             -6.5335
   XY=              0.0000   XZ=              0.0000   YZ=             -0.0000
 Traceless Quadrupole moment (field-independent basis, Debye-Ang):
   XX=             -1.6677   YY=              1.9239   ZZ=             -0.2561
   XY=              0.0000   XZ=              0.0000   YZ=             -0.0000
 Octapole moment (field-independent basis, Debye-Ang**2):
  XXX=              0.0000  YYY=              0.0000  ZZZ=             -1.6503  XYY=             -0.0000
  XXY=             -0.0000  XXZ=             -0.4919  XZZ=             -0.0000  YZZ=              0.0000
  YYZ=             -1.4312  XYZ=             -0.0000
 Hexadecapole moment (field-independent basis, Debye-Ang**3):
 XXXX=             -7.9819 YYYY=             -6.4202 ZZZZ=             -8.1090 XXXY=             -0.0000
 XXXZ=             -0.0000 YYYX=              0.0000 YYYZ=             -0.0000 ZZZX=             -0.0000
 ZZZY=             -0.0000 XXYY=             -2.6730 XXZZ=             -2.7312 YYZZ=             -2.1125
 XXYZ=              0.0000 YYXZ=              0.0000 ZZXY=              0.0000
 N-N= 9.081522757559D+00 E-N=-1.984308152231D+02  KE= 7.572409422601D+01
 Symmetry A1   KE= 6.763534600654D+01
 Symmetry A2   KE= 6.025920650876D-35
 Symmetry B1   KE= 4.476313837934D+00
 Symmetry B2   KE= 3.612434381533D+00
 1\1\GINC-GLIGAR05\FOpt\RB3LYP\6-31+G(d)\H2O1\VSC41947\10-Mar-2020\0\\#
 n B3LYP/6-31+G(d) opt\\no title\\0,1\H,1.0169341569,-0.0738054319,0.\H
 ,-0.0738054319,1.0169341569,0.\O,0.056871275,0.056871275,0.\\Version=E
 S64L-G16RevA.03\State=1-A1\HF=-76.4225734\RMSD=8.589e-09\RMSF=1.303e-0
 5\Dipole=0.6257121,0.6257121,0.\Quadrupole=0.6199611,0.6199611,-1.2399
 222,-0.8103831,0.,0.\PG=C02V [C2(O1),SGV(H2)]\\@


 YOU KNOW YOU'RE A TEACHER WHEN YOU SAY 2, WRITE 3, AND MEAN 4.
 -- RONALD ANSTROM, HIGH SCHOOL TEACHER, UNDERWOOD, N.D. 1974
 Job cpu time:       0 days  0 hours  0 minutes  4.0 seconds.
 Elapsed time:       0 days  0 hours  0 minutes  9.1 seconds.
 File lengths (MBytes):  RWF=    136 Int=      0 D2E=      0 Chk=     16 Scr=     16
 Normal termination of Gaussian 16 at Tue Mar 10 14:53:20 2020.
