no title                                                                
FOpt      RB3LYP                                                      6-31+G(d)           
Number of atoms                            I                3
Info1-9                                    I   N=           9
          12          11           0           0           0         110
           2          18        -502
Full Title                                 C   N=           1
no title    
Route                                      C   N=           2
#n B3LYP/6-31+G(d) opt  
Charge                                     I                0
Multiplicity                               I                1
Number of electrons                        I               10
Number of alpha electrons                  I                5
Number of beta electrons                   I                5
Number of basis functions                  I               23
Number of independent functions            I               23
Number of point charges in /Mol/           I                0
Number of translation vectors              I                0
Atomic numbers                             I   N=           3
           1           1           8
Nuclear charges                            R   N=           3
  1.00000000E+00  1.00000000E+00  8.00000000E+00
Current cartesian coordinates              R   N=           9
 -1.47911420E-31  1.45748786E+00 -8.86605963E-01 -1.78490784E-16 -1.45748786E+00
 -8.86605963E-01 -9.24446373E-33  4.15529990E-33  2.21651491E-01
Number of symbols in /Mol/                 I                0
Force Field                                I                0
Atom Types                                 C   N=           3
                                    
Int Atom Types                             I   N=           3
           0           0           0
MM charges                                 R   N=           3
  0.00000000E+00  0.00000000E+00  0.00000000E+00
Integer atomic weights                     I   N=           3
           1           1          16
Real atomic weights                        R   N=           3
  1.00782504E+00  1.00782504E+00  1.59949146E+01
Atom fragment info                         I   N=           3
           0           0           0
Atom residue num                           I   N=           3
           0           0           0
Nuclear spins                              I   N=           3
           1           1           0
Nuclear ZEff                               R   N=           3
 -1.00000000E+00 -1.00000000E+00 -5.60000000E+00
Nuclear ZNuc                               R   N=           3
  1.00000000E+00  1.00000000E+00  8.00000000E+00
Nuclear QMom                               R   N=           3
  0.00000000E+00  0.00000000E+00  0.00000000E+00
Nuclear GFac                               R   N=           3
  2.79284600E+00  2.79284600E+00  0.00000000E+00
MicOpt                                     I   N=           3
          -1          -1          -1
Number of residues                         I                0
Number of secondary structures             I                0
Redundant internal dimensions              I   N=           4
           3           2           1           0
Redundant internal coordinate indices      I   N=          12
           1           3           0           0           2           3
           0           0           1           3           2           0
Redundant internal coordinates             R   N=           3
  1.83098483E+00  1.83098483E+00  1.84135894E+00
ZRed-IntVec                                I   N=           3
           0           0           0
ZRed-FPVec                                 R   N=           3
  0.00000000E+00  0.00000000E+00  0.00000000E+00
ZRed-Constraint1                           R   N=           3
  1.88972612E+00  1.88972612E+00  1.57079633E+00
ZRed-Constraint2                           R   N=           3
  0.00000000E+00  0.00000000E+00  0.00000000E+00
SymInf integers                            I   N=          26
           2           4           1           1           1          -1
          -1           1          -1           1           1           1
          -1           1           0           0           0           0
           0           0           0           0           0           0
           0           0
RotTr to input orientation                 R   N=          12
 -1.73191211E-16  2.59786817E-16 -1.00000000E+00  7.07106781E-01 -7.07106781E-01
 -3.06161700E-16 -7.07106781E-01 -7.07106781E-01 -6.12323400E-17  2.64202406E-01
  2.64202406E-01  7.80767683E-17
Number of contracted shells                I                9
Number of primitive shells                 I               20
Pure/Cartesian d shells                    I                1
Pure/Cartesian f shells                    I                0
Highest angular momentum                   I                2
Largest degree of contraction              I                6
Shell types                                I   N=           9
           0           0           0           0           0          -1
          -1          -1           2
Number of primitives per shell             I   N=           9
           3           1           3           1           6           3
           1           1           1
Shell to atom map                          I   N=           9
           1           1           2           2           3           3
           3           3           3
Primitive exponents                        R   N=          20
  1.87311370E+01  2.82539436E+00  6.40121692E-01  1.61277759E-01  1.87311370E+01
  2.82539436E+00  6.40121692E-01  1.61277759E-01  5.48467166E+03  8.25234946E+02
  1.88046958E+02  5.29645000E+01  1.68975704E+01  5.79963534E+00  1.55396162E+01
  3.59993359E+00  1.01376175E+00  2.70005823E-01  8.45000000E-02  8.00000000E-01
Contraction coefficients                   R   N=          20
  3.34946043E-02  2.34726953E-01  8.13757326E-01  1.00000000E+00  3.34946043E-02
  2.34726953E-01  8.13757326E-01  1.00000000E+00  1.83107443E-03  1.39501722E-02
  6.84450781E-02  2.32714336E-01  4.70192898E-01  3.58520853E-01 -1.10777550E-01
 -1.48026263E-01  1.13076702E+00  1.00000000E+00  1.00000000E+00  1.00000000E+00
P(S=P) Contraction coefficients            R   N=          20
  0.00000000E+00  0.00000000E+00  0.00000000E+00  0.00000000E+00  0.00000000E+00
  0.00000000E+00  0.00000000E+00  0.00000000E+00  0.00000000E+00  0.00000000E+00
  0.00000000E+00  0.00000000E+00  0.00000000E+00  0.00000000E+00  7.08742682E-02
  3.39752839E-01  7.27158577E-01  1.00000000E+00  1.00000000E+00  0.00000000E+00
Coordinates of each shell                  R   N=          27
 -1.47911420E-31  1.45748786E+00 -8.86605963E-01 -1.47911420E-31  1.45748786E+00
 -8.86605963E-01 -1.78490784E-16 -1.45748786E+00 -8.86605963E-01 -1.78490784E-16
 -1.45748786E+00 -8.86605963E-01 -1.54074396E-32  1.38777878E-17  2.21651491E-01
 -1.54074396E-32  1.38777878E-17  2.21651491E-01 -1.54074396E-32  1.38777878E-17
  2.21651491E-01 -1.54074396E-32  1.38777878E-17  2.21651491E-01 -1.54074396E-32
  1.38777878E-17  2.21651491E-01
Num ILSW                                   I              100
ILSW                                       I   N=         100
           0           1           0           1           2           0
           0           0           0           0         402          -1
           5           0           0           0           2           0
           0           0           1           0           1           0
           1           0           0           0           0           0
           0           0      100000           0          -1           0
           0           0           0           0           0           0
           0           0           0           1           0           0
           0 -2000000000           1           0           0           0
           0           0           4          52           0           0
           0           0           5           0           0           0
           0           0           0           0           0           1
           0           0           0           0           0           0
           0           0           0           0           0           0
           0           0           0           0           0           0
           0           0           0           0           0           0
           0           0           0           0
Num RLSW                                   I               52
RLSW                                       R   N=          52
  8.00000000E-01  7.20000000E-01  1.00000000E+00  8.10000000E-01  2.00000000E-01
  0.00000000E+00  0.00000000E+00  1.00000000E+00  0.00000000E+00  0.00000000E+00
  0.00000000E+00  0.00000000E+00  1.00000000E+00  0.00000000E+00  0.00000000E+00
  0.00000000E+00  0.00000000E+00  1.00000000E+00  0.00000000E+00  0.00000000E+00
  0.00000000E+00  0.00000000E+00  1.00000000E+00  0.00000000E+00  0.00000000E+00
  0.00000000E+00  0.00000000E+00  1.00000000E+00  0.00000000E+00  0.00000000E+00
  0.00000000E+00  0.00000000E+00  1.00000000E+00  0.00000000E+00  0.00000000E+00
  0.00000000E+00  0.00000000E+00  0.00000000E+00  1.00000000E+00  1.00000000E+00
  0.00000000E+00  1.00000000E+00  0.00000000E+00  0.00000000E+00  0.00000000E+00
  0.00000000E+00  0.00000000E+00  0.00000000E+00  0.00000000E+00  0.00000000E+00
  0.00000000E+00  0.00000000E+00
MxBond                                     I                2
NBond                                      I   N=           3
           1           1           2
IBond                                      I   N=           6
           3           0           3           0           1           2
RBond                                      R   N=           6
  1.00000000E+00  0.00000000E+00  1.00000000E+00  0.00000000E+00  1.00000000E+00
  1.00000000E+00
Virial Ratio                               R      2.009224002001061E+00
SCF Energy                                 R     -7.642257342267848E+01
Total Energy                               R     -7.642257342267848E+01
RMS Force                                  R      1.303064780313367E-05
RMS Density                                R      8.588956815206456E-09
Job Status                                 I                1
Nuclear derivative order                   I                1
External E-field                           R   N=          35
  0.00000000E+00  0.00000000E+00  0.00000000E+00  0.00000000E+00  0.00000000E+00
  0.00000000E+00  0.00000000E+00  0.00000000E+00  0.00000000E+00  0.00000000E+00
  0.00000000E+00  0.00000000E+00  0.00000000E+00  0.00000000E+00  0.00000000E+00
  0.00000000E+00  0.00000000E+00  0.00000000E+00  0.00000000E+00  0.00000000E+00
  0.00000000E+00  0.00000000E+00  0.00000000E+00  0.00000000E+00  0.00000000E+00
  0.00000000E+00  0.00000000E+00  0.00000000E+00  0.00000000E+00  0.00000000E+00
  0.00000000E+00  0.00000000E+00  0.00000000E+00  0.00000000E+00  0.00000000E+00
IOpCl                                      I                0
IROHF                                      I                0
Alpha Orbital Energies                     R   N=          23
 -1.91689476E+01 -1.02227902E+00 -5.43547262E-01 -3.94904114E-01 -3.19259238E-01
  2.48925057E-02  1.13436218E-01  1.55470050E-01  1.55572632E-01  2.03668734E-01
  2.39432606E-01  9.47046260E-01  1.03186391E+00  1.11169236E+00  1.11381964E+00
  1.14373867E+00  1.24353185E+00  1.71233358E+00  1.72084331E+00  1.75827546E+00
  2.27094862E+00  2.63642532E+00  3.67481014E+00
Alpha MO coefficients                      R   N=         529
  3.96508596E-04 -9.01043980E-04  3.96508596E-04 -9.01043980E-04  9.92745596E-01
  2.59223879E-02  0.00000000E+00  0.00000000E+00 -1.20699873E-03  1.17817492E-02
  0.00000000E+00  0.00000000E+00  6.27251886E-04 -1.08002094E-03  0.00000000E+00
  0.00000000E+00 -7.02357300E-04 -8.07405440E-03 -8.15160415E-03 -8.11561613E-03
  0.00000000E+00  0.00000000E+00  0.00000000E+00  1.40376739E-01 -3.19527913E-02
  1.40376739E-01 -3.19527913E-02 -2.10166583E-01  4.75130961E-01  0.00000000E+00
  0.00000000E+00 -1.24722584E-01  4.40819275E-01  0.00000000E+00  0.00000000E+00
 -6.72844088E-02  5.59725831E-02  0.00000000E+00  0.00000000E+00 -1.81028449E-02
 -1.00880732E-02  2.10191148E-02  1.62225306E-02  0.00000000E+00  0.00000000E+00
  0.00000000E+00  2.39146949E-01  1.13695145E-01 -2.39146949E-01 -1.13695145E-01
  0.00000000E+00  0.00000000E+00  0.00000000E+00  5.23981603E-01  0.00000000E+00
  0.00000000E+00  0.00000000E+00  2.69375419E-01  0.00000000E+00  0.00000000E+00
  0.00000000E+00  1.91038309E-02  0.00000000E+00  0.00000000E+00  0.00000000E+00
  0.00000000E+00  0.00000000E+00  0.00000000E+00 -4.09898164E-02 -1.43315166E-01
 -8.74200778E-02 -1.43315166E-01 -8.74200778E-02 -8.09782778E-02  1.85401387E-01
  0.00000000E+00  0.00000000E+00  5.61003200E-01  3.15138035E-01  0.00000000E+00
  0.00000000E+00  3.39417921E-01  3.28004293E-02  0.00000000E+00  0.00000000E+00
  7.99685824E-02  9.90076917E-03  1.08933270E-02 -4.12317954E-02  0.00000000E+00
  0.00000000E+00  0.00000000E+00  0.00000000E+00  0.00000000E+00  0.00000000E+00
  0.00000000E+00  0.00000000E+00  0.00000000E+00  6.44065289E-01  0.00000000E+00
  0.00000000E+00  0.00000000E+00  4.34948285E-01  0.00000000E+00  0.00000000E+00
  0.00000000E+00  1.23353710E-01  0.00000000E+00  0.00000000E+00  0.00000000E+00
  0.00000000E+00  0.00000000E+00  0.00000000E+00 -3.40717560E-02  0.00000000E+00
  9.07082448E-02  8.72862355E-02  9.07082448E-02  8.72862355E-02  9.44657288E-02
 -1.13970019E-01  0.00000000E+00  0.00000000E+00  2.31368682E-01 -1.06109990E+00
  0.00000000E+00  0.00000000E+00  2.58457382E-01  1.27362138E+00  0.00000000E+00
  0.00000000E+00 -4.25824373E-01  5.61303915E-02  4.43205248E-02  3.45851608E-02
  0.00000000E+00  0.00000000E+00  0.00000000E+00  6.92746074E-02  3.58861633E-01
 -6.92746074E-02 -3.58861633E-01  0.00000000E+00  0.00000000E+00  0.00000000E+00
 -3.44964804E-01  0.00000000E+00  0.00000000E+00  0.00000000E+00 -5.94771687E-01
  0.00000000E+00  0.00000000E+00  0.00000000E+00  9.12709586E-01  0.00000000E+00
  0.00000000E+00  0.00000000E+00  0.00000000E+00  0.00000000E+00  0.00000000E+00
  2.66567246E-02  0.00000000E+00  0.00000000E+00  0.00000000E+00  0.00000000E+00
  0.00000000E+00  0.00000000E+00 -2.70978651E-01  0.00000000E+00  0.00000000E+00
  0.00000000E+00 -4.61846012E-01  0.00000000E+00  0.00000000E+00  0.00000000E+00
  1.20000107E+00  0.00000000E+00  0.00000000E+00  0.00000000E+00  0.00000000E+00
  0.00000000E+00  0.00000000E+00  8.47313006E-03  0.00000000E+00  3.00156844E-02
  4.72400101E-01  3.00156844E-02  4.72400101E-01  5.86967264E-02 -5.21989163E-02
  0.00000000E+00  0.00000000E+00 -1.85068030E-01 -7.08777120E-01  0.00000000E+00
  0.00000000E+00 -3.04012237E-01  5.53150999E-02  0.00000000E+00  0.00000000E+00
  1.32931524E+00  3.33193630E-02  4.54428227E-02  4.70841983E-02  0.00000000E+00
  0.00000000E+00  0.00000000E+00  1.65549521E-01  1.85352741E+00 -1.65549521E-01
 -1.85352741E+00  0.00000000E+00  0.00000000E+00  0.00000000E+00 -2.34366251E-01
  0.00000000E+00  0.00000000E+00  0.00000000E+00 -5.22977681E-01  0.00000000E+00
  0.00000000E+00  0.00000000E+00 -1.55626632E+00  0.00000000E+00  0.00000000E+00
  0.00000000E+00  0.00000000E+00  0.00000000E+00  0.00000000E+00 -2.00240481E-02
 -1.69338972E-01 -2.39613971E+00 -1.69338972E-01 -2.39613971E+00 -4.54912208E-02
  5.73131662E-02  0.00000000E+00  0.00000000E+00 -2.37174320E-01  7.74258565E-01
  0.00000000E+00  0.00000000E+00 -6.12528780E-01  3.30865899E+00  0.00000000E+00
  0.00000000E+00 -1.10663276E+00 -1.11089005E-03 -4.05375627E-02  5.65932538E-03
  0.00000000E+00  0.00000000E+00  0.00000000E+00 -7.55644577E-01  1.77432071E+00
  7.55644577E-01 -1.77432071E+00  0.00000000E+00  0.00000000E+00  0.00000000E+00
  6.21775063E-01  0.00000000E+00  0.00000000E+00  0.00000000E+00 -4.82580666E-01
  0.00000000E+00  0.00000000E+00  0.00000000E+00 -8.21749846E-01  0.00000000E+00
  0.00000000E+00  0.00000000E+00  0.00000000E+00  0.00000000E+00  0.00000000E+00
  2.14715162E-01 -6.19430919E-01  2.05482175E+00 -6.19430919E-01  2.05482175E+00
  1.65824805E-03  8.21640237E-01  0.00000000E+00  0.00000000E+00 -6.79799880E-01
 -1.98905501E+00  0.00000000E+00  0.00000000E+00  9.12238485E-01 -1.73123018E+00
  0.00000000E+00  0.00000000E+00  5.62862963E-01  2.94121623E-01  1.09445917E-01
  1.92771012E-01  0.00000000E+00  0.00000000E+00  0.00000000E+00 -4.33599164E-01
  2.51102762E-01  4.33599164E-01 -2.51102762E-01  0.00000000E+00  0.00000000E+00
  0.00000000E+00 -7.87329115E-01  0.00000000E+00  0.00000000E+00  0.00000000E+00
  1.61570261E+00  0.00000000E+00  0.00000000E+00  0.00000000E+00 -8.08461011E-01
  0.00000000E+00  0.00000000E+00  0.00000000E+00  0.00000000E+00  0.00000000E+00
  0.00000000E+00  1.84953541E-01  0.00000000E+00  0.00000000E+00  0.00000000E+00
  0.00000000E+00  0.00000000E+00  0.00000000E+00 -9.72666034E-01  0.00000000E+00
  0.00000000E+00  0.00000000E+00  1.45738869E+00  0.00000000E+00  0.00000000E+00
  0.00000000E+00 -7.02617657E-01  0.00000000E+00  0.00000000E+00  0.00000000E+00
  0.00000000E+00  0.00000000E+00  0.00000000E+00 -3.59623428E-02  0.00000000E+00
  5.67663029E-01 -6.93484620E-01  5.67663029E-01 -6.93484620E-01  2.22698769E-02
 -3.55023927E-01  0.00000000E+00  0.00000000E+00 -7.02316839E-01  5.58340887E-01
  0.00000000E+00  0.00000000E+00  1.37973126E+00  4.84846947E-01  0.00000000E+00
  0.00000000E+00 -9.00516554E-01 -2.30072640E-01  1.26146783E-01 -1.49051342E-01
  0.00000000E+00  0.00000000E+00  0.00000000E+00 -4.61592141E-01  1.93496823E-01
 -4.61592141E-01  1.93496823E-01 -8.40004502E-02 -1.52627032E+00  0.00000000E+00
  0.00000000E+00 -1.55517243E-01  3.54005980E+00  0.00000000E+00  0.00000000E+00
 -1.11081237E-01 -1.31303771E+00  0.00000000E+00  0.00000000E+00  3.08124920E-02
 -2.47055522E-01 -6.87574452E-01 -4.25709100E-01  0.00000000E+00  0.00000000E+00
  0.00000000E+00  1.00581016E-01 -3.58080973E-02  1.00581016E-01 -3.58080973E-02
  7.93631098E-03  6.32571270E-02  0.00000000E+00  0.00000000E+00 -2.25321943E-02
 -1.90137409E-01  0.00000000E+00  0.00000000E+00  1.70218242E-01  7.17163226E-02
  0.00000000E+00  0.00000000E+00 -6.98322255E-02 -3.92105784E-01 -5.58248317E-01
  1.00866373E+00  0.00000000E+00  0.00000000E+00  0.00000000E+00  0.00000000E+00
  0.00000000E+00  0.00000000E+00  0.00000000E+00  0.00000000E+00  0.00000000E+00
  0.00000000E+00  0.00000000E+00  0.00000000E+00  0.00000000E+00  0.00000000E+00
  0.00000000E+00  0.00000000E+00  0.00000000E+00  0.00000000E+00  0.00000000E+00
  0.00000000E+00  0.00000000E+00  0.00000000E+00  0.00000000E+00  1.00000000E+00
  0.00000000E+00  0.00000000E+00  0.00000000E+00  0.00000000E+00  0.00000000E+00
  0.00000000E+00  0.00000000E+00  0.00000000E+00 -1.07524654E-02  0.00000000E+00
  0.00000000E+00  0.00000000E+00  7.12338689E-02  0.00000000E+00  0.00000000E+00
  0.00000000E+00 -3.12721859E-02  0.00000000E+00  0.00000000E+00  0.00000000E+00
  0.00000000E+00  0.00000000E+00  0.00000000E+00  9.98736217E-01  0.00000000E+00
 -8.66490682E-01  1.15773330E-01 -8.66490682E-01  1.15773330E-01 -5.50740980E-02
 -4.93282454E-01  0.00000000E+00  0.00000000E+00  6.36734342E-02  1.47874867E+00
  0.00000000E+00  0.00000000E+00 -7.31456841E-01 -3.12305556E-01  0.00000000E+00
  0.00000000E+00  1.66895956E-01 -1.11173709E+00  7.52215179E-01  1.63199394E-02
  0.00000000E+00  0.00000000E+00  0.00000000E+00  1.05208871E+00 -4.45759658E-01
 -1.05208871E+00  4.45759658E-01  0.00000000E+00  0.00000000E+00  0.00000000E+00
  6.99710501E-02  0.00000000E+00  0.00000000E+00  0.00000000E+00 -9.87415865E-01
  0.00000000E+00  0.00000000E+00  0.00000000E+00  4.22980040E-01  0.00000000E+00
  0.00000000E+00  0.00000000E+00  0.00000000E+00  0.00000000E+00  0.00000000E+00
  1.25960725E+00  1.45346120E-01 -5.92937118E-01  1.45346120E-01 -5.92937118E-01
 -4.91832498E-01  1.43198052E-01  0.00000000E+00  0.00000000E+00  3.28410172E-02
  4.20362410E+00  0.00000000E+00  0.00000000E+00 -9.00860460E-02 -2.20348873E-01
  0.00000000E+00  0.00000000E+00 -2.67372879E-01 -1.65566026E+00 -1.63036845E+00
 -1.64094037E+00  0.00000000E+00  0.00000000E+00  0.00000000E+00
Orthonormal basis                          R   N=         529
  1.00602654E-01  1.47583552E-01  1.00602654E-01  1.47583552E-01  2.56962132E-02
  1.31531898E-01  0.00000000E+00  0.00000000E+00 -2.07713043E-02  1.78452165E-01
  0.00000000E+00  0.00000000E+00 -4.48903466E-02  1.55139563E-01  0.00000000E+00
  0.00000000E+00 -3.96341304E-02  1.16819829E-01  1.30260625E-01  1.24591178E-01
  0.00000000E+00  0.00000000E+00  0.00000000E+00 -1.20808135E-01 -7.89977950E-02
 -1.20808135E-01 -7.89977950E-02  3.83472773E-02  1.34170025E-01  0.00000000E+00
  0.00000000E+00  2.58071306E-01  1.20412311E-01  0.00000000E+00  0.00000000E+00
  4.01867997E-01  6.27724941E-02  0.00000000E+00  0.00000000E+00  3.40554673E-01
  1.16518980E-01  7.37934072E-02  9.18154323E-02  0.00000000E+00  0.00000000E+00
  0.00000000E+00 -4.94236579E-02 -1.34237093E-01 -4.94236579E-02 -1.34237093E-01
  8.27843990E-01  3.27851408E-01  0.00000000E+00  0.00000000E+00 -2.26808703E-01
  4.54234449E-02  0.00000000E+00  0.00000000E+00 -1.04699241E-01 -2.07187706E-01
  0.00000000E+00  0.00000000E+00 -8.27785195E-03  4.92147734E-02 -4.38286801E-02
 -4.58212689E-03  0.00000000E+00  0.00000000E+00  0.00000000E+00 -3.99204802E-02
  2.29801405E-01 -3.99204802E-02  2.29801405E-01  4.08818538E-01 -2.13880198E-01
  0.00000000E+00  0.00000000E+00  6.99431875E-01 -6.29097106E-02  0.00000000E+00
  0.00000000E+00  6.75708704E-02  2.15701236E-01  0.00000000E+00  0.00000000E+00
 -3.72956539E-01 -1.68844906E-01 -1.63276878E-01 -1.65625522E-01  0.00000000E+00
  0.00000000E+00  0.00000000E+00 -3.13480009E-01 -3.01390794E-02 -3.13480009E-01
 -3.01390794E-02 -2.38550247E-01  2.59997168E-01  0.00000000E+00  0.00000000E+00
  1.33383896E-01  5.63618847E-02  0.00000000E+00  0.00000000E+00 -1.35994184E-01
 -1.45088309E-01  0.00000000E+00  0.00000000E+00 -4.15755586E-01  7.13619255E-01
 -4.16848638E-01  5.99927370E-02  0.00000000E+00  0.00000000E+00  0.00000000E+00
 -1.56475267E-01  2.20878045E-01 -1.56475267E-01  2.20878045E-01  1.83843443E-01
 -3.88086951E-01  0.00000000E+00  0.00000000E+00 -4.87012001E-01  2.38576206E-03
  0.00000000E+00  0.00000000E+00  1.04036019E-01  5.42257161E-01  0.00000000E+00
  0.00000000E+00  3.52696291E-01  2.30870923E-01 -5.06737698E-01 -1.95607845E-01
  0.00000000E+00  0.00000000E+00  0.00000000E+00  1.25165196E-16 -1.79560025E-16
  1.25165196E-16 -1.79560025E-16  1.35275295E-16 -1.30342172E-15  0.00000000E+00
  0.00000000E+00 -6.11211825E-16  2.20115008E-16  0.00000000E+00  0.00000000E+00
  1.27796513E-15 -5.84228172E-16  0.00000000E+00  0.00000000E+00 -1.08184003E-15
 -4.20100050E-01 -5.75848798E-01  9.95948849E-01  0.00000000E+00  0.00000000E+00
  0.00000000E+00  6.78603426E-01 -1.86053989E-01  6.78603426E-01 -1.86053989E-01
  1.56378759E-01 -4.62364988E-01  0.00000000E+00  0.00000000E+00  5.03850383E-01
 -3.48961526E-03  0.00000000E+00  0.00000000E+00 -4.36488346E-01 -3.05109828E-01
  0.00000000E+00  0.00000000E+00  5.84816706E-01  6.74771273E-01 -3.81145403E-01
  6.42496084E-02  0.00000000E+00  0.00000000E+00  0.00000000E+00  7.34531601E-02
  1.23870180E-01  7.34531601E-02  1.23870180E-01 -3.32794104E-01  1.25603247E+00
  0.00000000E+00  0.00000000E+00  3.54813007E-01 -1.80454735E-01  0.00000000E+00
  0.00000000E+00 -6.56433200E-01  3.63050785E-01  0.00000000E+00  0.00000000E+00
  6.54772121E-01 -5.52634145E-01 -6.65671190E-01 -6.17991162E-01  0.00000000E+00
  0.00000000E+00  0.00000000E+00  9.29152264E-01  1.08708387E-02  9.29152264E-01
  1.08708387E-02 -1.39598003E-01  5.70274671E-01  0.00000000E+00  0.00000000E+00
 -4.40372705E-01 -9.68069656E-02  0.00000000E+00  0.00000000E+00  1.62253130E+00
 -2.43394599E-01  0.00000000E+00  0.00000000E+00 -7.32900223E-01  2.05018240E-02
 -8.66924227E-01 -4.92600055E-01  0.00000000E+00  0.00000000E+00  0.00000000E+00
  5.39249643E-01 -2.19817587E+00  5.39249643E-01 -2.19817587E+00  2.28299307E-01
  5.05842653E-01  0.00000000E+00  0.00000000E+00  8.32619703E-02 -2.56503669E+00
  0.00000000E+00  0.00000000E+00 -2.07857522E-01  3.82515947E+00  0.00000000E+00
  0.00000000E+00 -1.11136525E+00  8.09059057E-01  7.09589985E-01  7.51546921E-01
  0.00000000E+00  0.00000000E+00  0.00000000E+00  8.70798922E-02 -2.46114694E+00
  8.70798922E-02 -2.46114694E+00 -3.88782491E-01 -9.48172852E-01  0.00000000E+00
  0.00000000E+00  1.27469810E-01  5.70421348E+00  0.00000000E+00  0.00000000E+00
 -6.84722334E-01  1.52826698E+00  0.00000000E+00  0.00000000E+00 -1.14704162E+00
 -1.45705587E+00 -1.17724804E+00 -1.29527346E+00  0.00000000E+00  0.00000000E+00
  0.00000000E+00  0.00000000E+00  0.00000000E+00  0.00000000E+00  0.00000000E+00
  0.00000000E+00  0.00000000E+00  0.00000000E+00  0.00000000E+00  0.00000000E+00
  0.00000000E+00  0.00000000E+00  0.00000000E+00  0.00000000E+00  0.00000000E+00
  0.00000000E+00  0.00000000E+00  0.00000000E+00  0.00000000E+00  0.00000000E+00
  0.00000000E+00  1.00000000E+00  0.00000000E+00  0.00000000E+00  0.00000000E+00
  0.00000000E+00  0.00000000E+00  0.00000000E+00  0.00000000E+00  0.00000000E+00
  3.38496871E-01  0.00000000E+00  0.00000000E+00  0.00000000E+00  4.84301624E-01
  0.00000000E+00  0.00000000E+00  0.00000000E+00  4.13451438E-01  0.00000000E+00
  0.00000000E+00  0.00000000E+00  0.00000000E+00  0.00000000E+00  0.00000000E+00
  0.00000000E+00  0.00000000E+00  0.00000000E+00  0.00000000E+00  0.00000000E+00
  0.00000000E+00  0.00000000E+00  0.00000000E+00  0.00000000E+00  0.00000000E+00
  0.00000000E+00  0.00000000E+00  0.00000000E+00  0.00000000E+00  0.00000000E+00
  0.00000000E+00  0.00000000E+00  0.00000000E+00  0.00000000E+00  0.00000000E+00
  0.00000000E+00  0.00000000E+00  0.00000000E+00  1.00000000E+00  0.00000000E+00
  0.00000000E+00  0.00000000E+00  0.00000000E+00  0.00000000E+00  0.00000000E+00
  0.00000000E+00  8.79966812E-01  0.00000000E+00  0.00000000E+00  0.00000000E+00
 -6.66489147E-02  0.00000000E+00  0.00000000E+00  0.00000000E+00 -6.42367665E-01
  0.00000000E+00  0.00000000E+00  0.00000000E+00  0.00000000E+00  0.00000000E+00
  0.00000000E+00  0.00000000E+00  0.00000000E+00  0.00000000E+00  0.00000000E+00
  0.00000000E+00  0.00000000E+00  0.00000000E+00  0.00000000E+00 -7.38595040E-01
  0.00000000E+00  0.00000000E+00  0.00000000E+00  1.51411613E+00  0.00000000E+00
  0.00000000E+00  0.00000000E+00 -1.16888405E+00  0.00000000E+00  0.00000000E+00
  0.00000000E+00  0.00000000E+00  0.00000000E+00  0.00000000E+00  0.00000000E+00
  0.00000000E+00  2.00413783E-01  1.57805860E-01 -2.00413783E-01 -1.57805860E-01
  0.00000000E+00  0.00000000E+00  0.00000000E+00  1.89571683E-01  0.00000000E+00
  0.00000000E+00  0.00000000E+00  3.29359503E-01  0.00000000E+00  0.00000000E+00
  0.00000000E+00  2.78249086E-01  0.00000000E+00  0.00000000E+00  0.00000000E+00
  0.00000000E+00  0.00000000E+00  0.00000000E+00 -8.27750666E-02 -2.41937187E-01
  4.08309766E-02  2.41937187E-01 -4.08309766E-02  0.00000000E+00  0.00000000E+00
  0.00000000E+00  1.44432978E-01  0.00000000E+00  0.00000000E+00  0.00000000E+00
  1.75081195E-01  0.00000000E+00  0.00000000E+00  0.00000000E+00  2.29651857E-01
  0.00000000E+00  0.00000000E+00  0.00000000E+00  0.00000000E+00  0.00000000E+00
  0.00000000E+00  7.83534474E-01  3.66107247E-02 -1.84576532E-01 -3.66107247E-02
  1.84576532E-01  0.00000000E+00  0.00000000E+00  0.00000000E+00  8.80435091E-01
  0.00000000E+00  0.00000000E+00  0.00000000E+00  5.65240770E-02  0.00000000E+00
  0.00000000E+00  0.00000000E+00 -5.05629271E-01  0.00000000E+00  0.00000000E+00
  0.00000000E+00  0.00000000E+00  0.00000000E+00  0.00000000E+00  1.51191912E-02
  6.70741873E-01 -6.53200634E-02 -6.70741873E-01  6.53200634E-02  0.00000000E+00
  0.00000000E+00  0.00000000E+00 -6.12963661E-01  0.00000000E+00  0.00000000E+00
  0.00000000E+00  4.85070658E-01  0.00000000E+00  0.00000000E+00  0.00000000E+00
 -8.48125776E-01  0.00000000E+00  0.00000000E+00  0.00000000E+00  0.00000000E+00
  0.00000000E+00  0.00000000E+00  6.74211615E-01 -9.33157924E-01 -3.97281702E-01
  9.33157924E-01  3.97281702E-01  0.00000000E+00  0.00000000E+00  0.00000000E+00
 -4.91567627E-01  0.00000000E+00  0.00000000E+00  0.00000000E+00  2.02977454E+00
  0.00000000E+00  0.00000000E+00  0.00000000E+00 -4.96619037E-01  0.00000000E+00
  0.00000000E+00  0.00000000E+00  0.00000000E+00  0.00000000E+00  0.00000000E+00
 -7.52252411E-01 -7.31147386E-01  2.60086573E+00  7.31147386E-01 -2.60086573E+00
  0.00000000E+00  0.00000000E+00  0.00000000E+00  1.02688113E-01  0.00000000E+00
  0.00000000E+00  0.00000000E+00 -1.43481571E-01  0.00000000E+00  0.00000000E+00
  0.00000000E+00 -1.84699524E+00  0.00000000E+00  0.00000000E+00  0.00000000E+00
  0.00000000E+00  0.00000000E+00  0.00000000E+00 -1.68110021E-01
Total SCF Density                          R   N=         276
  1.94872573E-01  7.04653683E-02  4.31812975E-02 -3.38924810E-02 -3.82940201E-02
  1.94872573E-01 -3.82940201E-02 -8.52504651E-03  7.04653683E-02  4.31812975E-02
 -3.50069042E-02  2.58000577E-02 -3.50069042E-02  2.58000577E-02  2.07254259E+00
  8.02735656E-02 -6.28258426E-02  8.02735656E-02 -6.28258426E-02 -1.78271598E-01
  5.21590149E-01 -7.70371978E-33 -3.85185989E-33  7.70371978E-33  3.85185989E-33
  0.00000000E+00  0.00000000E+00  8.29640192E-01  2.50617204E-01  1.19148329E-01
 -2.50617204E-01 -1.19148329E-01  4.14278947E-19 -9.07504631E-19 -4.77630626E-32
  5.49113441E-01 -1.95817790E-01 -9.01132423E-02 -1.95817790E-01 -9.01132423E-02
 -4.08295927E-02  8.94398442E-02 -2.84972599E-32 -1.22740315E-17  6.60563541E-01
  3.34427682E-02 -8.32908274E-02  3.34427682E-02 -8.32908274E-02 -2.12937073E-01
  5.36358651E-01 -1.05090293E-32 -2.47167813E-18  2.43598213E-01  5.87544848E-01
 -3.85185989E-33 -1.92592994E-33  3.85185989E-33  1.92592994E-33  0.00000000E+00