ITEM: TIMESTEP
0
ITEM: NUMBER OF ATOMS
108
ITEM: BOX BOUNDS pp pp pp
0.0000000000000000e+00 1.2150000000000000e+01
0.0000000000000000e+00 1.2149999999999990e+01
0.0000000000000000e+00 1.2149999999999990e+01
ITEM: ATOMS id type xsu ysu zsu fx fy fz 
1 1                    0                    0                    0 1.90819582357449e-16 1.98834004816462e-14 1.97836538817775e-14 
2 1                    0    0.166666666666629    0.166666666666629 5.23886489744996e-16 9.26342336171615e-16  8.6389229103645e-16 
3 1    0.166666666666629                    0    0.166666666666629  1.0547118733939e-15 2.00013616780126e-14 6.69603261727048e-16 
4 1    0.166666666666629    0.166666666666629                    0 1.04777297948999e-15 1.79630615937398e-15 2.02893257750247e-14 
5 1                    0    0.333333333333371                    0 2.51534904016637e-16 -4.6898249173033e-15 1.89639970393785e-14 
6 1                    0                  0.5    0.166666666666629 1.38777878078145e-17 4.36196218034368e-15 1.06512021424976e-15 
7 1    0.166666666666629    0.333333333333371    0.166666666666629 8.67361737988404e-18 -5.04631059161653e-15 6.99960922556642e-16 
8 1    0.166666666666629                  0.5                    0 1.64451785522601e-15 5.44009282066327e-15 2.05959381494036e-14 
9 1                    0    0.666666666666629                    0 -1.73472347597681e-16 -1.97758476261356e-16 2.01609562378025e-14 
10 1                    0    0.833333333333371    0.166666666666629 -4.5102810375397e-15 -1.9970136655445e-14 1.17614251671228e-15 
11 1    0.166666666666629    0.666666666666629    0.166666666666629 2.17187379192296e-15 -7.45063732932039e-16 1.30104260698261e-16 
12 1    0.166666666666629    0.833333333333371                    0  2.8345381597461e-15  -1.929532922329e-14 1.94592605917698e-14 
13 1    0.333333333333371                    0                    0 -8.15320033709099e-16 1.97081934105725e-14 1.96279624498086e-14 
14 1    0.333333333333371    0.166666666666629    0.166666666666629 -1.53696499971545e-15 8.80155323623732e-16 8.09031661108683e-16 
15 1                  0.5                    0    0.166666666666629 1.37216626949765e-15 2.03513421392909e-14 5.79397640976254e-16 
16 1                  0.5    0.166666666666629                    0 1.47017814589034e-15 1.76941794549634e-15 2.07017562814382e-14 
17 1    0.333333333333371    0.333333333333371                    0 -3.33066907387547e-16 -4.99730465342019e-15  1.9630347694588e-14 
18 1    0.333333333333371                  0.5    0.166666666666629 -5.23886489744996e-16 4.73845632362328e-15 1.16876994193937e-16 
19 1                  0.5    0.333333333333371    0.166666666666629 1.20795714702816e-15 -5.00988139862102e-15 8.03827490680753e-16 
20 1                  0.5                  0.5                    0 2.22738494315422e-15 4.45650460978442e-15 2.10964058722229e-14 
21 1    0.333333333333371    0.666666666666629                    0 -1.41553435639707e-15 4.72928987638177e-16 2.03153466271644e-14 
22 1    0.333333333333371    0.833333333333371    0.166666666666629 -1.72084568816899e-15 -1.9560958755549e-14 4.29127219869763e-16 
23 1                  0.5    0.666666666666629    0.166666666666629 -9.80425210131616e-16 -1.43461631463282e-15 8.44810332800705e-16 
24 1                  0.5    0.833333333333371                    0 -1.13624387676481e-15 -1.93838001205648e-14 2.10276674544874e-14 
25 1    0.666666666666629                    0                    0 1.49880108324396e-15 2.08132122647697e-14  2.0719537197067e-14 
26 1    0.666666666666629    0.166666666666629    0.166666666666629 -3.64291929955129e-16 9.40220123979429e-16 8.49147141490647e-16 
27 1    0.833333333333371                    0    0.166666666666629 7.59808882477842e-16 1.93768612266609e-14 7.35522753814166e-16 
28 1    0.833333333333371    0.166666666666629                    0 7.84095011141517e-16 1.85962356624714e-15 1.96561517062932e-14 
29 1    0.666666666666629    0.333333333333371                    0 5.51642065360625e-16 -4.38581462813836e-15 2.00742200640036e-14 
30 1    0.666666666666629                  0.5    0.166666666666629 7.97972798949331e-17 3.96210841913103e-15 9.99200722162641e-16 
31 1    0.833333333333371    0.333333333333371    0.166666666666629  4.8919202022546e-16 -4.69416172599324e-15 7.91033905045424e-16 
32 1    0.833333333333371                  0.5                    0 1.00613961606655e-16 4.73666245115467e-15 1.99978922310606e-14 
33 1    0.666666666666629    0.666666666666629                    0 1.75900960464048e-15 -4.60569082871842e-16 2.12815876032835e-14 
34 1    0.666666666666629    0.833333333333371    0.166666666666629 1.12323345069498e-15 -1.85112342121485e-14 7.81492925927552e-16 
35 1    0.833333333333371    0.666666666666629    0.166666666666629 1.36696209906972e-15 -2.42861286636753e-16 2.08860706507608e-15 
36 1    0.833333333333371    0.833333333333371                    0 5.56846235788555e-16 -1.91825721973515e-14  2.0344836926256e-14 
37 1                    0                    0    0.333333333333371 2.46330733588707e-16 1.97871233287295e-14 -5.31172328344098e-15 
38 1                    0    0.166666666666629                  0.5 -3.81639164714898e-17  1.7728873924483e-15 4.93702301262999e-15 
39 1    0.166666666666629                    0                  0.5 1.56819002228303e-15 2.01522826204226e-14  5.5198901005582e-15 
40 1    0.166666666666629    0.166666666666629    0.333333333333371 -3.46944695195361e-17 6.66133814775094e-16 -4.92661467177413e-15 
41 1                    0    0.333333333333371    0.333333333333371 3.22658566531686e-16 -4.65079363909382e-15 -4.72798883377479e-15 
42 1                    0                  0.5                  0.5 -3.61516372393567e-15 5.82259934711615e-15 4.71150896075301e-15 
43 1    0.166666666666629    0.333333333333371                  0.5 -1.45022882591661e-15 -4.69763117294519e-15 5.00554458993108e-15 
44 1    0.166666666666629                  0.5    0.333333333333371 -1.37737043992558e-15 4.75636447391631e-15 -4.91794105439425e-15 
45 1                    0    0.666666666666629    0.333333333333371 -4.12517242587285e-15 -9.12464548363801e-16 -4.74620343027254e-15 
46 1                    0    0.833333333333371                  0.5 -4.00027233560252e-15 -2.13110779023751e-14 5.65693325516037e-15 
47 1    0.166666666666629    0.666666666666629                  0.5 2.70616862252382e-16 -4.44089209850063e-16 4.52589354882349e-15 
48 1    0.166666666666629    0.833333333333371    0.333333333333371 -1.08376849161651e-15 -1.96648253236731e-14 -5.49213452494257e-15 
49 1    0.333333333333371                    0    0.333333333333371 -3.43475248243408e-16 2.03702072570922e-14 -5.80330054844591e-15 
50 1    0.333333333333371    0.166666666666629                  0.5 -5.48172618408671e-16 9.84238732182341e-16 5.41428880895811e-15 
51 1                  0.5                    0                  0.5 2.29677388219329e-15   2.053066917862e-14 4.61262972262233e-15 
52 1                  0.5    0.166666666666629    0.333333333333371 1.23456219936222e-15 9.08995101411847e-16 -4.73579508941668e-15 
53 1    0.333333333333371    0.333333333333371    0.333333333333371 -7.80625564189563e-16 -5.23886489744996e-15 -5.54417622922188e-15 
54 1    0.333333333333371                  0.5                  0.5 7.21644966006352e-16 5.61114946670388e-15 4.43915737502465e-15 
55 1                  0.5    0.333333333333371                  0.5 1.62977270568021e-15 -4.30905311432639e-15 4.39470508595274e-15 
56 1                  0.5                  0.5    0.333333333333371 1.63324215263216e-15 4.12820819195581e-15 -4.46170878021235e-15 
57 1    0.333333333333371    0.666666666666629    0.333333333333371 -4.19803081186387e-16 -5.88288098790635e-16 -4.92704835264313e-15 
58 1    0.333333333333371    0.833333333333371                  0.5 -6.17561557447743e-16 -2.02977825519701e-14 5.47261888583783e-15 
59 1                  0.5    0.666666666666629                  0.5 -4.10262102068515e-16 -1.28022592527088e-15 3.83482308408123e-15 
60 1                  0.5    0.833333333333371    0.333333333333371 -1.46887710328336e-15 -1.97543804231204e-14 -5.45050116151913e-15 
61 1    0.666666666666629                    0    0.333333333333371 6.26235174827627e-16 2.08617845220971e-14 -5.2054714705374e-15 
62 1    0.666666666666629    0.166666666666629                  0.5  4.5102810375397e-17 1.79370407416002e-15 4.59181304091061e-15 
63 1    0.833333333333371                    0                  0.5  1.6306400674182e-16 1.95642113620664e-14 4.85462364752109e-15 
64 1    0.833333333333371    0.166666666666629    0.333333333333371 5.22151766269019e-16 8.37871438896798e-16 -4.46170878021235e-15 
65 1    0.666666666666629    0.333333333333371    0.333333333333371 -3.22658566531686e-16 -4.56926163572291e-15 -4.68678915122034e-15 
66 1    0.666666666666629                  0.5                  0.5  7.0082828429463e-16 4.73926453636864e-15 3.60822483003176e-15 
67 1    0.833333333333371    0.333333333333371                  0.5 1.43114686768087e-15 -3.69235891861663e-15 5.83040560275805e-15 
68 1    0.833333333333371                  0.5    0.333333333333371 1.33313499128818e-15 5.57540125178946e-15 -3.70189989773451e-15 
69 1    0.666666666666629    0.666666666666629    0.333333333333371 1.26548077572508e-15 -1.57252683097298e-15 -4.31252256127834e-15 
70 1    0.666666666666629    0.833333333333371                  0.5 1.96023752785379e-15 -1.97819191583015e-14 4.49466852625591e-15 
71 1    0.833333333333371    0.666666666666629                  0.5 2.76167977375508e-15 -1.0772632785816e-15 4.41140179940902e-15 
72 1    0.833333333333371    0.833333333333371    0.333333333333371 1.69092170820839e-15 -2.05929023833207e-14 -5.38371430769402e-15 
73 1                    0                    0    0.666666666666629 -1.59594559789866e-16 1.88174129056584e-14 -9.78384040450919e-16 
74 1                    0    0.166666666666629    0.833333333333371 -4.81212292235966e-15 3.81118747672105e-15 -2.06380051936961e-14 
75 1    0.166666666666629                    0    0.833333333333371 3.10515502199848e-15 1.54286305953377e-14 -2.02754479872169e-14 
76 1    0.166666666666629    0.166666666666629    0.666666666666629 1.80411241501588e-15 2.07819872422021e-15 -4.32813507256213e-16 
77 1                    0    0.333333333333371    0.666666666666629 -4.03843625207401e-15 -7.41767758327683e-15 -2.63677968348475e-16 
78 1                    0                  0.5    0.833333333333371 -3.46597750500166e-15 2.03222855210683e-15 -2.08236206056256e-14 
79 1    0.166666666666629    0.333333333333371    0.833333333333371 -9.61036805691151e-16 -6.62143950780347e-15  -2.034310220278e-14 
80 1    0.166666666666629                  0.5    0.666666666666629 8.32667268468867e-17 3.10342029852251e-15 -1.0096090630185e-15 
81 1                    0    0.666666666666629    0.666666666666629 -4.23966417528732e-15 5.06539254985228e-16 -1.20042864537595e-15 
82 1                    0    0.833333333333371    0.833333333333371 -4.54497550705923e-15 -1.89700685715444e-14 -2.08279574143155e-14 
83 1    0.166666666666629    0.666666666666629    0.833333333333371 1.11889664200504e-15 8.77770078844264e-16 -1.87697080100691e-14 
84 1    0.166666666666629    0.833333333333371    0.666666666666629  1.0547118733939e-15 -1.86448079197987e-14 1.05818132034585e-16 
85 1    0.333333333333371                    0    0.666666666666629 -1.38430933382949e-15 1.89319046550729e-14 -2.38307637512314e-16 
86 1    0.333333333333371    0.166666666666629    0.833333333333371 -1.75900960464048e-15 2.46721046370801e-15 -2.01455605669532e-14 
87 1                  0.5                    0    0.833333333333371 -1.13797860024079e-15 1.70453928749481e-14 -2.03257549680202e-14 
88 1                  0.5    0.166666666666629    0.666666666666629 -9.81075731435107e-16  2.4980018054066e-15 -1.0547118733939e-15 
89 1    0.333333333333371    0.333333333333371    0.666666666666629 -2.53269627492614e-16 -7.17698470098505e-15 1.75857592377149e-16 
90 1    0.333333333333371                  0.5    0.833333333333371 -5.20417042793042e-16 2.35250187385905e-15 -1.98628006403689e-14 
91 1                  0.5    0.333333333333371    0.833333333333371 -1.36089056690381e-15 -6.8660355179162e-15 -2.04363435896138e-14 
92 1                  0.5                  0.5    0.666666666666629 -4.16333634234434e-16 2.08492077768963e-15 -1.93855348440408e-15 
93 1    0.333333333333371    0.666666666666629    0.666666666666629 -2.23779328401008e-15 1.01676479735691e-15 -7.14489231667947e-16 
94 1    0.333333333333371    0.833333333333371    0.833333333333371 -3.6498581934552e-15 -1.81944303373482e-14 -2.01282133321934e-14 
95 1                  0.5    0.666666666666629    0.833333333333371 -3.73399228204008e-15 3.10515502199848e-16 -1.89861147636972e-14 
96 1                  0.5    0.833333333333371    0.666666666666629 -3.59521440396193e-15 -1.86829718362702e-14 -6.80011602582908e-16 
97 1    0.666666666666629                    0    0.666666666666629 1.66533453693773e-15 1.99024824398819e-14 -1.24119464706141e-15 
98 1    0.666666666666629    0.166666666666629    0.833333333333371 1.30017524524462e-15 3.08867514897671e-15 -1.90784887887929e-14 
99 1    0.833333333333371                    0    0.833333333333371  9.9399655173471e-16 1.66932440093248e-14 -2.00811589579075e-14 
100 1    0.833333333333371    0.166666666666629    0.666666666666629 1.37737043992558e-15 4.13558076672871e-15 8.67361737988404e-17 
101 1    0.666666666666629    0.333333333333371    0.666666666666629 1.52221985016965e-15 -6.85658414456855e-15 -9.79251402188908e-16 
102 1    0.666666666666629                  0.5    0.833333333333371 2.25340579529387e-15 1.19175502799607e-15 -1.92801503928752e-14 
103 1    0.833333333333371    0.333333333333371    0.833333333333371 1.64842098304696e-15 -7.12711140105071e-15 -2.1242556325074e-14 
104 1    0.833333333333371                  0.5    0.666666666666629 2.32452945780892e-15 2.97505076130022e-15 -1.75207071073658e-15 
105 1    0.666666666666629    0.666666666666629    0.666666666666629  2.9247437804969e-15 -5.64652491430451e-16 -2.19962936753859e-15 
106 1    0.666666666666629    0.833333333333371    0.833333333333371 3.00193897517786e-15 -1.81599527082632e-14 -1.95485988507826e-14 
107 1    0.833333333333371    0.666666666666629    0.833333333333371 1.59421087442269e-15 7.59808882477842e-16 -2.00672811700997e-14 
108 1    0.833333333333371    0.833333333333371    0.666666666666629 2.06605565988838e-15 -1.98400323947467e-14 -4.54497550705923e-16 
ITEM: TIMESTEP
100
ITEM: NUMBER OF ATOMS
108
ITEM: BOX BOUNDS pp pp pp
-7.8722825268723540e-02 1.2228722825268729e+01
-7.8722825268723540e-02 1.2228722825268719e+01
-7.8722825268723540e-02 1.2228722825268719e+01
ITEM: ATOMS id type xsu ysu zsu fx fy fz 
1 1    0.013929879140278 -0.00604722738069086 -0.000756288165348451    -0.36462373547477    0.617922969614311     0.55045204248803 
2 1  0.00763385684763307    0.160959152030046     0.17310130183057   -0.291835841370453    0.236297618883243   0.0947133442813203 
3 1    0.168746511198151 -0.00589936517309297    0.190882163370929     0.13336189087823   0.0644114165685346   -0.597986701639033 
4 1    0.166745765243718    0.175251672187528   0.0240246102965784     0.14153866478798  -0.0857693217592379   -0.406606156006682 
5 1  -0.0156474356581953    0.344119156923057  0.00506285899439263    0.176752296004063   -0.645265278857521    0.102166841052019 
6 1  0.00553910254768653    0.500855715524153    0.165380464082659   -0.402334498578763   -0.114075662987154     0.35884727263711 
7 1    0.166245816204196    0.340729687959993    0.181375205370045   0.0733808298687847    -0.49328839529794   -0.237213013939551 
8 1    0.157329665586417    0.489920823913508  0.00319391773939515    0.334063781683005   -0.156575952906694   -0.515438389658242 
9 1 -0.00460497085992984    0.649658568956852    0.009075609695401    0.218115712614413    0.321726875130433   -0.761428850170583 
10 1  0.00403207505632963    0.822942811456073    0.169614517248419   0.0490144085494592  -0.0343210492950048   -0.167341941627211 
11 1    0.173659902413988    0.650553166091299    0.158741997167681   -0.683925029783895    0.687693834533521  -0.0842226896044285 
12 1    0.148206611631849    0.824095224182543  -0.0160328480139356    0.817707177442655    0.215588748597076     1.30867923705864 
13 1    0.315359184417389 -0.00388379357866597   0.0224271116429691  -0.0594184082326535  -0.0641583613168435   -0.416316888419234 
14 1    0.351264067203829    0.152947366139642    0.181096722875964   -0.633177916388911    0.495118984838727    0.232177995492187 
15 1    0.483888386631293  -0.0168711183255823    0.176402865471459    0.620791364699982   0.0861375428506183   -0.472975909873764 
16 1    0.480065894654672    0.150559220591617 -0.00186853978186718    0.718923355908485   -0.153977793550704    0.149883452080387 
17 1    0.348236842587653    0.318110359370849  0.00316206924287599   -0.658151973573487    0.492002843551178   0.0928932591438665 
18 1    0.318451992059636    0.500322730444623    0.156716288002599     1.03555912694912   -0.469633515508082    0.152421932903969 
19 1    0.508966507110586     0.31142636472805    0.162438286885958    0.115315256714412    0.380527884265993    0.203325869462938 
20 1    0.492994353677545    0.492446698823414  0.00528702977646844    0.192031510530254    -0.19345354195851   -0.445227291962798 
21 1    0.324557188542713    0.661579458482151  -0.0132847257146409    0.356030108533894   -0.038379508930154    0.295060806735653 
22 1     0.32071419598708    0.816589464378808    0.164085541737336    0.314332391894789    0.400937716875387   -0.482484820254068 
23 1    0.519518399162394    0.656856562605412    0.142960505928158   -0.866691277438064    0.181675318089677    0.557698160046803 
24 1    0.496630516163691    0.845620354570997  -0.0063547824354373  -0.0150143194435597   -0.233526490546535     0.17863951284664 
25 1    0.675366743652603 -0.00603276368707384 -0.00303333417053864  -0.0740196196290836   -0.166698413321785   -0.159382830928452 
26 1    0.659432950364817     0.14002614691185    0.152279361226078   -0.316905079401932    0.197565987605077    0.364245797195741 
27 1    0.841103527395148  0.00528368275240609    0.167438950966698  -0.0333863977239343   -0.125203480756458   -0.175687324371792 
28 1    0.828214528561148    0.157496681073098  0.00519349632907051      0.2917070768028    0.458471138382959   -0.166116897217057 
29 1    0.662197362070401     0.31713868784243 -0.00788917046071447   -0.118277861332659    0.109282893569785   -0.144701333770828 
30 1    0.666480193308757     0.48632633875684    0.162637807104261  -0.0345202237837642    0.422263047866885   -0.245254084881593 
31 1    0.784099365789416    0.316225985619781    0.189040322901405    0.844182480207202   -0.182669968572387   -0.266664901124717 
32 1     0.82229823361024    0.488840752923579  -0.0203498991969013  -0.0123606131041777    0.335428454014019    0.451886303629072 
33 1    0.661520937037494    0.677284404788338  -0.0143547272979845    0.459260394858875   -0.151457069846208   -0.321554765512606 
34 1    0.670358770179291    0.818498894436516    0.151171061376886    0.200577491200191    0.628987395611422    0.285106251024939 
35 1    0.832902465693792    0.647675097235947    0.145873103746112   -0.343610272052303    0.273597097798998    0.532650681467931 
36 1    0.858581908622568    0.835744120274853 -0.00244246324928099   -0.640404143356275   -0.195087501205862   0.0903549534413227 
37 1   0.0114643838178381  -0.0114452016574091    0.330409922276658   -0.286167825923553    0.572467036301615   0.0285357340414832 
38 1 -0.00620882785665344    0.166986901204609    0.513536881610548    0.445680689884104    0.135335060538917   -0.870886867830034 
39 1    0.190245475436882  0.00670796161489307    0.499095305270771    -1.04729217129623  -0.0257524588176867  -0.0281016151731513 
40 1    0.151504591921253    0.166658429785116    0.353032977693715    0.272509660851694    0.169550251596962   -0.476023631255037 
41 1 -0.00518581998238687    0.349026351118823    0.324952023620313  -0.0215813708457488   -0.603977193766479    0.398576261409492 
42 1  -0.0110582116541877    0.517771743063804    0.504384007637782     0.67940962073811   -0.365330965095782    0.443499581851358 
43 1    0.166333106721368    0.336074667977755    0.496494167326091   -0.339579212056771    0.157277763043196    0.369144136097552 
44 1     0.16780729278878    0.505972816987878    0.330712765390103  -0.0528386836884613   0.0956757135426559    0.428275345185451 
45 1  0.00510361284500505    0.667525236178449    0.348624926441062   -0.400152878777265   0.0565145871069941   -0.544776542615619 
46 1   0.0279483921200381    0.843387463905742    0.483829499353646   -0.387932210072678   -0.255334077191848    0.876052031083665 
47 1    0.177421296670445     0.66733051956237    0.497812021855339   0.0888660434143872   -0.184123309926112    0.524567199224646 
48 1    0.168944386502176    0.803143398098655    0.325647947883795     0.26843724347927    0.864669898250237   -0.151825746864334 
49 1    0.334769312358844  -0.0153638062827781    0.335948941412084   0.0158490920033673     0.25880167397758   -0.140900886146032 
50 1    0.345431586425207    0.168109399567925    0.483433676965888   -0.393530071598473   -0.174973946223043    0.283163583914284 
51 1    0.504740339460568 -0.00674911356890107    0.492754236855262   0.0464997633122862    0.385169243091526   0.0403536118594728 
52 1    0.515017526447878    0.185128222698495    0.353987911256013    0.216390552494481   -0.256412847396489   -0.410912536160659 
53 1    0.326794971990921    0.351034330171842    0.356099043196423    0.439866222344259   -0.496805739923243   -0.973457415345257 
54 1    0.351398741600406    0.511465966395349     0.49233977334859     -0.3760554124836    0.523882918081321    0.357289468719502 
55 1     0.49297880696372    0.346779250742429    0.518353169005991    0.220706886020662   -0.182958567156038   -0.376383189645113 
56 1    0.513099946241255    0.488044722536756    0.316904428957514   -0.581446054195591    0.297285636196711    0.248689573813584 
57 1    0.335305616504229    0.665572815652126    0.318218315625472    0.359666276480991   -0.639835718406274     0.45260279918531 
58 1     0.33637510470578    0.846574548549597    0.501728378368853   -0.203983369726245   -0.777294976651243    0.123199747675629 
59 1    0.490076269070073     0.69111890230613    0.519201680124752    0.279563304955587   -0.077460860763167   -0.628046037060971 
60 1    0.494268363033484    0.817946394440128    0.315631158541805    0.269838121109227   0.0169327530744156    0.426723353047326 
61 1    0.661295803566304 -0.00554628264939083    0.326117961488649    0.104299755450879    0.173935087457367   0.0064191145878493 
62 1    0.674902818268151    0.174408496642627    0.527934270058154    -0.15093903327712   -0.116862837628541   -0.955510395522117 
63 1    0.856919650666441 -0.00925006194887601    0.494571721185821   -0.500144984088899    0.107308894507215    0.109117712739661 
64 1    0.842403865056099       0.164134996548    0.341402226958735   -0.168186160980609  -0.0388211995571244   0.0475186761239149 
65 1    0.669879351679924    0.347632305161937    0.372359656137178  0.00789992730587465  -0.0372155294415368   0.0430532268559981 
66 1    0.653133409640645    0.532622079111661    0.521840874110467   -0.383338054850828   -0.391305216223673    -1.59706923161429 
67 1    0.838838277981381    0.347736568669461    0.510339525997551    0.505303320756257   -0.431276727185876   -0.487704222509985 
68 1    0.849370619180263    0.511720892762355    0.343098861901467   -0.875222159872075   -0.112005411814133   -0.584545179740543 
69 1    0.662759885101991    0.664176288220915    0.315933341393929    0.264781346868131  -0.0757806563200407    0.299339135314681 
70 1    0.659778685086394    0.831697985806272    0.484310382493845    0.226604961075643   0.0527059901998965    0.135020294505747 
71 1    0.813519939456341    0.671121019865382     0.49683803879725     0.62943754471518    0.554353752524002  -0.0916005585441426 
72 1    0.838919822899015    0.853780523392061    0.320255070755479   -0.310371655565218   -0.927000990734744    0.291249137534097 
73 1  0.00148720125787349  0.00997127500420447    0.668167050316583   -0.144307956845353   -0.189806365318004   -0.135226031885347 
74 1   -0.013310847449759    0.183790587969042     0.83318591052398    0.481313073247601   -0.342078767829304    0.479605573818138 
75 1    0.146356107552947  0.00804120522070662    0.830439364466656    0.732855414421345    0.182670066534749    0.259314024646508 
76 1    0.160799123902166    0.170060358319006    0.674658904326861  -0.0188782802699455    -0.91260743371737   -0.641420412559704 
77 1   0.0107319827685615    0.321575536138653     0.66566937349171   -0.460095150158354     1.00282580762436   -0.155115193921623 
78 1 0.000637292077954044    0.485682457488338    0.834157499777689   -0.106797431456083    0.268651497439801    -0.20179873847977 
79 1    0.175637943081597     0.32666053995672    0.814114094615661   -0.350933729171169    0.512203883117074     1.25802285474025 
80 1    0.160021062331566    0.493123409255304    0.676261475964907    0.291039355030775    0.462208278402225   -0.454772856294704 
81 1  0.00758929337018799    0.669231411726514    0.674730158934153  -0.0107657213184343   -0.258836376394011   -0.108349577232733 
82 1  0.00827757355705216     0.83170355823313    0.835250788343387   -0.984368837800736  -0.0125993017825103   -0.478911854348874 
83 1    0.161261310897771    0.666319090070715    0.845467837938941 0.000698076852284298   -0.623691713930537   -0.822046581259858 
84 1    0.150674417668483    0.845945421279453    0.675471070795766    0.728677352242681    -0.30157252765801   -0.459514050152619 
85 1    0.324804061653481  0.00332881294389153    0.661217939019252    0.111348708980827    0.470512340002154    0.608474447865958 
86 1    0.323931094096338    0.168775223414173    0.831473666255079    0.155209660168467   -0.835426877389265    0.433534723060532 
87 1    0.507083554967835  0.00786992807979914    0.836551086417217   -0.300073590290697    0.190298036474725   -0.111178540199002 
88 1    0.499085479659243    0.167587211866362    0.659338353110911    0.238155222213725   -0.566214776195862     0.16182905758612 
89 1    0.330263912823625    0.299052145053338    0.662767672826817    0.078649761792278     1.17335142060847   -0.353835468168103 
90 1    0.345211899552851    0.484870585215276    0.828138280119674   -0.304990141925186    0.211719191633152   0.0326476442697192 
91 1    0.492257234928275    0.315067317607372     0.82857605059462     0.48756356889303    0.258970775511202   0.0226730047378407 
92 1    0.501381739294402    0.519071291390105    0.667191190463996   -0.352319529294133   -0.586540327271629    0.451759377302022 
93 1    0.348259558363907    0.674343849123034    0.676588106034615    -1.13683294425981    0.131914744731842   0.0082334739958102 
94 1    0.325767832409156    0.848462003353347      0.8465336331667  -0.0336701731683151  -0.0526510526805154   -0.342000524572199 
95 1    0.491672516909603    0.671773446400834    0.833992804962804    0.239685259518035    0.166261515864405    0.483368162514026 
96 1    0.486604828001191    0.864708959220366    0.676421660755409    0.458139222712583   -0.825508759543239   -0.125773295376225 
97 1     0.68731097971056 -0.00543566066261292    0.649476721752194   -0.178836193008021   -0.198733429533997    0.299035019024571 
98 1    0.677162078704441    0.156668235008283    0.815854776776291   -0.296396996616443    0.150903338174788    0.142615904585545 
99 1    0.845553059496638  0.00898282190098598     0.83603204763449  -0.0461144270817367   -0.407567117145823   -0.118311036384976 
100 1    0.841331200615514     0.17505367084334    0.661658842665929   -0.239632660545341    -0.25599049324799    0.416798225217389 
101 1    0.673038706994134    0.357046265705662    0.645271393453413   -0.610541488271336   -0.642183879569205    0.959975460475024 
102 1    0.663149504663011    0.514128292503756    0.833837953896705   -0.217103906932764   -0.390919253898207   -0.198583950825901 
103 1    0.822097764327509    0.330993370140732    0.823506726607548  -0.0487900654417928     0.26704276523544   0.0257106854289004 
104 1    0.816845909645394    0.511158023206121    0.650493951735484    0.945073456709906    0.490124484985409     1.11396646288063 
105 1    0.654551788316667    0.679844386796617    0.676253835996704    0.371057774277375    0.644083467900073    0.161557350629992 
106 1    0.666126359330406     0.85230071261708    0.829865800830589    0.303580341761567   -0.399842636333562   -0.143511813722126 
107 1    0.829009845103769    0.676918797024769    0.826457138055616    0.120723194142598     -0.1923417809826    0.108046924676703 
108 1    0.856016942863903    0.834937644123102     0.66449535355116   -0.309157352530369   0.0579377648834628   -0.126063042841266 
ITEM: TIMESTEP
200
ITEM: NUMBER OF ATOMS
108
ITEM: BOX BOUNDS pp pp pp
-9.3313684388654394e-02 1.2243313684388653e+01
-9.3313684388654394e-02 1.2243313684388642e+01
-9.3313684388654394e-02 1.2243313684388642e+01
ITEM: ATOMS id type xsu ysu zsu fx fy fz 
1 1 -0.00431535234901048   0.0166144885680524   0.0149439257055519   0.0997769477156226   -0.401197157924677   -0.535896306154336 
2 1  -0.0104080887864484    0.166956137894658    0.176459422956441    0.252130573581318   0.0377985856814445   0.0634576573453484 
3 1    0.158980620826924   0.0134396607830922    0.173029498919504    0.192938874216054   -0.451064017862821   -0.127152097886561 
4 1    0.169248405425151     0.16145924450268  0.00341296235785649   0.0439786701672608   0.0156970413050871   0.0646547207924996 