LAMMPS (17 Nov 2016)
units metal
dimension 3
boundary p p p
atom_style atomic
read_data structure.inp
  orthogonal box = (0 0 0) to (12.15 12.15 12.15)
  1 by 1 by 1 MPI processor grid
  reading atoms ...
  108 atoms
include potential.inp
pair_style eam/alloy
pair_coeff * * AlAg.lammps.eam Al Ag
fix 1 all npt temp 600 600 1.0 iso 0.0 0.0 1.0
variable  dumptime equal 100
dump 1 all custom ${dumptime} dump.out id type xsu ysu zsu fx fy fz
dump 1 all custom 100 dump.out id type xsu ysu zsu fx fy fz
dump_modify 1 sort id format line "%d %d %20.15g %20.15g %20.15g %20.15g %20.15g %20.15g"
thermo_style custom step temp pe etotal pxx pyy pzz vol
thermo_modify format  float %20.15g
thermo 100
velocity all create 1200 83069 dist gaussian
run 10000
Neighbor list info ...
  1 neighbor list requests
  update every 1 steps, delay 10 steps, check yes
  max neighbors/atom: 2000, page size: 100000
  master list distance cutoff = 8.5
  ghost atom cutoff = 8.5
  binsize = 4.25 -> bins = 3 3 3
Memory usage per processor = 3.93753 Mbytes
Step Temp PotEng TotEng Pxx Pyy Pzz Volume 
       0                 1200    -362.880399705225    -346.283397087225     707.054544807534    -185.124103980959    -2517.88298824529          1793.613375 
     100     544.741131936611    -354.126853028483    -346.592628034413    -8097.36346811419    -8390.74300125805    -7475.01395461127     1864.24840347377 
     200     589.707120856846    -354.617112631914    -346.460970441318    -15582.7325925766     -12138.830426684    -13899.6514413079     1877.54061672181 
     300     612.012944593468    -354.829589906828    -346.364939537105     16923.2685721819      13628.545398616     14230.3614825136     1791.02558152165 
     400     597.736213199342    -354.823459197653    -346.556267951534     645.965245547773     434.640514799845     -2907.0853854954     1835.20838508275 
     500     497.124885898264    -353.235932359264    -346.360279831992    -7131.51414390779    -13986.4055594135    -11474.5506116162     1873.83547127982 
     600     559.900495234106    -354.108021017381    -346.364129363031     9233.83970879724     13520.5422374055     6884.63455619749     1818.89388393878 
     700     568.405649239688    -354.178884058741     -346.31735901831     6217.39962744368     4254.23175679488     4575.96418525405     1825.83274220186 
     800     544.987866991559    -353.747709071315    -346.210071525284    -8070.71013188504     -4621.0032397662    -10772.7460210678     1865.15025270737 
     900     647.432175996664    -355.129295860886    -346.174767927557     264.785670041871    -4163.49411995654    -2826.61476386832     1839.62005740778 
    1000     597.993702309329    -354.313356845545    -346.042604309899     4022.28406057691     7718.00803325149     2749.47058997207     1823.12530342849 
    1100     550.121947096653    -353.555927445831    -345.947281282345    -4450.98225561121    -1106.76950687458    -3219.03104459487      1855.3238996491 
    1200     614.074959305714    -354.331795481539    -345.838625725501    -2903.28339839497    -3325.97264663702    -3485.53035001495     1851.46748284842 
    1300     640.341907516355    -354.530525378856    -345.674061782636     2493.16546704929     3617.33635769942     4795.43067822386     1829.00269781754 
    1400     612.870494227048    -354.009052096437    -345.532541098786    -2790.57999661716    -547.238806053732    -1959.32507740163     1844.02586355082 
    1500     634.474430171967    -354.127817892659    -345.352506410477    -3482.12660909192    -5555.17036331863    -3002.82531087606     1854.68256700256 
    1600     593.982285917573    -353.391656066986    -345.176384771636      1654.5450552397     4047.98318738704     3104.55568918188      1839.4496446764 
    1700     631.033238624969    -353.729336401795    -345.001619473876     1875.98866664061    -298.428290589948    -1541.67197964933     1845.72251685364 
    1800     610.766891986761    -353.277829534384    -344.830413113307     25.9866665463814    -4133.19047821103    -2573.01497879173     1852.82212164354 
    1900      607.48309939755    -353.068560178729    -344.666561352819    -391.566281834332     7335.63239196317    -1464.69670459766     1844.92006393264 
    2000     624.730315724593    -353.157653635662    -344.517111397642     2683.18824641152     4839.20266417564     1489.20459478511     1843.15794163891 
    2100     692.657416643481    -353.971956274367    -344.391925476526     -6639.5384611747     -2247.6572151202    -7956.14955053314     1861.35905709599 
    2200     620.157866559803    -352.860491176818    -344.283189731096     483.891369573965     1485.17622496516    -5007.27981726367     1856.83443182926 
    2300     606.023443618085    -352.565177345035    -344.183366778119     6141.91262051862      6479.7156258861     7478.32150547263     1840.78826462553 
    2400     600.749898494883    -352.437467329773    -344.128594298037     1213.17304166003     2094.89034341958    -2422.50298861375     1859.92089795801 
    2500     671.267090560677    -353.359002548844    -344.074817832667    -9345.12522529018    -2795.49145658791     -5296.5386445604     1867.99363076088 
    2600     601.452899021816    -352.365514166848    -344.046918050457     4668.24866348629     5854.08241151993      8946.2449055536     1840.13325865871 
    2700     676.456378456738    -353.396680563191    -344.040723659683     -1210.3157503546     1658.88022895882    -3307.10210229743     1852.51443061487 
    2800     669.473999775718    -353.285059591259    -344.025674818792    -3252.49184500015    -7025.25469596571    -6748.23745840026     1869.05661642228 
    2900     636.172945821678    -352.852772010533    -344.053968637781      137.64239882705     3076.45110755296     2566.21969531265     1846.94468169902 
    3000     656.759803690528    -353.166174953464    -344.082638135756     4105.35617496595     4836.14847513865     4346.72291492607      1839.4088365389 
    3100     671.947556025051    -353.405486451792    -344.111890329703    -3409.30717793742    -8531.97601864161    -6465.81671831061      1866.0716199643 
    3200     661.488298734913    -353.320426611133    -344.171490756233    -614.426450672133    -3865.18839371793     921.446280298292      1853.5884574035 
    3300     728.533517032648    -354.270749927566    -344.194522686323     8576.11097450377     3139.50413224619    -478.630464424374     1835.23524007602 
    3400     670.192856831895    -353.549514909188    -344.280187743018      -4031.510376999    -5341.17676546271    -3504.16896503789      1861.6484455574 
    3500     660.768394491127    -353.454595525852    -344.315616548135    -4247.72343289456    -3763.66889308104    -4640.57578677855     1863.46933177256 
    3600     641.714264031643    -353.222451698846    -344.347007265396     5167.76469202181     7837.36998063629     7385.32697643846     1831.65428299831 
    3700       614.0129407339    -352.946555272901    -344.454243285529    -1664.48410793418     178.765166733198     3624.16334331271     1853.06533125132 
    3800     645.475956052311    -353.419174496139    -344.491702719092    -13062.2528726333    -6365.57563098282    -8352.92411267262     1873.78606415655 
    3900     705.822002994895    -354.302794781399    -344.540686755108     1006.79362987889     4669.91981523462     8052.05692962169     1831.91557155258 
    4000      649.74332187036    -353.633374871389    -344.646881859631     928.280259217732      2464.7051010615     1668.79436284741     1842.93466877909 
    4100     613.164730306494    -353.119925586794    -344.639345058325    -8004.72529285105    -12112.3245336636    -8720.01860730904     1877.99405576206 
    4200     638.306801638536     -353.58603801236    -344.757721630792     3074.14995582549     3305.55329456499     5443.52617751871     1835.93329595126 
    4300     644.072285891482    -353.717933414175     -344.80987556824     4964.61211776252     6401.39855366359     6808.10980804824     1832.81413397931 
    4400     605.153533140601    -353.179892494121    -344.810113515932    -12865.6154833931    -6973.70012748119     -10307.479305879     1880.46591544982 
    4500     679.440423988117    -354.344588007569    -344.947359261147    -175.974155764998     -2485.8230639243    -3044.28812134548     1849.13508324762 
    4600     658.444039443227    -354.049497927793    -344.942666722421     6249.04504092764     10551.1134657557     7996.05552906443     1822.82911001254 
    4700     580.393699796941    -353.068021951203     -345.04069215537    -7715.58556834229    -7772.53919411606    -6161.97226518611     1873.79844529168 
    4800     558.589184892193    -352.897759934829    -345.172004798127    -3621.68384024022       1026.230490278     -4089.0133009541     1859.34384393883 
    4900     611.455976797198    -353.562062516037    -345.105115476291     12112.4623334606     14364.8430172095     12238.8268859717     1811.12846085196 
    5000     624.966559396596    -353.922435555664    -345.278625870274    -11995.7693425819     269.661981918206    -7700.79681524141      1860.1420722668 
    5100     575.535064482772    -353.250277590237     -345.29014678026    -8073.87022500532    -5849.86088195326    -9410.19466701071     1870.24016864806 
    5200     665.963065801188    -354.525510267687    -345.314684645526     4894.96294681337     16304.2320447424     6526.35006338048     1814.40976694581 
    5300     630.323632903799    -354.216477636438    -345.498575148528    -656.511386327779     2253.70349438972     208.404660753142     1840.21846105046 
    5400     564.539630105518    -353.240173337258     -345.43211857157    -11318.2009184109    -8193.20998362888    -14857.5827350597     1881.86793072904 
    5500     605.402940072018    -353.975922485924    -345.602694001491     6795.77928870332     7091.60355199373     6282.05525987585     1825.78476207882 
    5600     600.543598273287    -353.944241484229    -345.638221756925     6042.06110409382     9882.44877239277     5140.50454947664     1824.04983146298 
    5700     624.780803958747     -354.27423442015    -345.632993887668    -14469.0454207414    -10728.7987572279    -10986.1117284298     1873.92722695867 
    5800     597.446140851144    -354.042660371612    -345.779481068428     1977.62242639845     1431.97174439343    -145.727380008837     1837.50545932492 
    5900     641.634311580633    -354.659647071868    -345.785308447616     7516.39870238668      4358.6066263512      6664.4395278032     1821.82382780775 
    6000     594.282772213898    -354.062758308433    -345.843331036544    -8872.86488721641    -6870.83416705431    -6894.56701270047     1863.75451697248 
    6100     617.423832322229    -354.465647297335    -345.926159829445    -4868.66234479889    -2114.11829874893    -1612.86048069281     1849.04704567418 
    6200      579.98514222976     -353.96530713838    -345.943628035056     5194.67491211832     5203.29046438079     10222.2067713912     1827.02216855306 
    6300     590.223705812976    -354.178428443582    -346.015141451429    -4994.91693024149    -2695.73349128922    -2731.72924939571     1849.39068997307 
    6400      615.28376446828    -354.565012915331     -346.05512437392    -6040.79013457199    -4286.87761204141    -3986.58434829683     1852.09324025425 
    6500     570.347018245748    -353.989386920632    -346.101011124804     7628.91794598343     5123.46146250108     5991.83082000767     1827.18776993623 
    6600     591.321464181258    -354.343698268891    -346.165228361311    -2753.23337669539    -3289.66924917771     2025.25835296028     1845.35408569254 
    6700     532.955056019081     -353.56758555819    -346.196371841503    -1553.17905463192    -1543.02351477208     -3190.6944296061     1851.90878706291 
    6800     614.431973111518    -354.733117385079    -346.235009829817     1885.42618290743       1918.861032582     2971.62958424412      1831.3739827776 
    6900     563.011446104579    -354.065784777655     -346.27886607352    -396.769094319302     4098.83193758408     1980.73632079736     1837.78076574285 
    7000     578.219406035254    -354.305447074376    -346.308189577921    -2852.49641277301     -5664.7461539145    -3387.98131891463     1850.25436806085 
    7100     583.008589489533    -354.417868031392     -346.35437212633     3822.85936216031    -180.059597292266     376.501475536877     1835.96330394985 
    7200     618.432311576003    -354.949555237472    -346.396119658903     339.605528165149     2071.96143450342    -208.542614532333     1833.52845952328 
    7300     546.014322515556    -353.995640038503    -346.443805754956    -496.865567357383    -3353.19995904615     -1965.9879203856     1848.19581810752 
    7400     611.456426807139    -354.960424680083    -346.503471416324    -1723.71433472115    -3511.81759121696     387.296170592535     1838.79726448213 
    7500     633.928182320342    -355.324082488741    -346.556326070745     1916.33244859744    -388.845314610432     2536.46958774775     1828.84444003447 
    7600     542.813953004918    -354.141252153578     -346.63368165432    -2361.11378394428    -4404.12261957311     841.259371620839     1846.31170489448 
    7700     553.906014118494    -354.371460514877    -346.710477542834    -961.354405261833    -1645.01184950584    -3636.40393633668     1843.46494196412 
    7800     549.458017803597    -354.370079418111    -346.770615951471     6255.13457085101     3384.60671440748     10177.9876885989     1821.26399676671 
    7900      552.66423929717    -354.514496381363    -346.870688192621    -2026.75942332039    -2469.06741453996    -2087.57202057808     1841.31227611716 
    8000     585.025702109563    -355.029098150514     -346.93770389259    -8587.39836201209    -5752.94514829422    -2473.51222164715     1846.66915514243 
    8100     596.194168932942    -355.255902241694    -347.010038756181     5222.25954725604     1981.64009680916     5268.12461240572     1818.96990845484 
    8200     582.269159641412    -355.151515351036    -347.098246378578    -4015.05651819469    -2610.26980682812       3705.146144946     1834.56886090739 
    8300     551.020607348259    -354.757844871621    -347.136769486011    -6656.08202110841    -5800.61598307852    -5572.80926118933     1852.53997509932 
    8400     553.149428478693    -354.859083384814    -347.208564624309      2959.0934729113     3173.88212586137     4970.52697476007     1823.15411166417 
    8500     532.345730077836    -354.617908588347    -347.255122358528      6063.5151333874     2938.47027482449     5926.00672505273     1822.88996241003 
    8600     526.000999509193     -354.53913796558    -347.264104660643    -6360.23411854444    -9734.52987755849    -2198.77633551108     1853.91008974899 
    8700     526.954817223359    -354.605390328417    -347.317164927564     2572.52589778007     323.975789903082     2782.58282448397     1831.25312218507 
    8800     559.264467509109    -355.030630865599    -347.295536006096      5824.7349213934     5262.94827113109     6633.07686707044     1820.61511865202 
    8900     551.205082503799    -354.910378171252     -347.28675134011    -9625.05289734489    -8794.58717220386    -7037.18314760411     1858.27972864663 
    9000     524.994877863908    -354.573807838412    -347.312690036458    -412.198994883536    -391.733771810712     3500.38569949969     1836.65640823734 
    9100     518.634838003735    -354.386981689548     -347.21382855277     9313.65720474523     10754.9821652833     11108.9042189291     1811.23002499112 
    9200      521.33058068662    -354.422826896692    -347.212389386276    -6566.35132070369    -2616.65572663655    -3427.80392706016     1851.56447968753 
    9300     566.087717478876    -354.970905571119    -347.141439463607    -8661.09385861465    -6272.29002918976    -6001.59684803108     1853.95714607448 
    9400     610.290557515616    -355.442767664455    -347.001939347098     6505.58475068641     7153.15141382045     8692.28647506902      1810.5222845063 
    9500     547.109411512101    -354.548619779753    -346.981639500421    -3071.79976505768    -1759.23764926826    -2215.18863037196      1843.7391673523 
    9600     460.317662522131    -353.171931547581    -346.805353672588     -2616.1842299451    -2564.61621504187    -5401.43668769729      1857.3760876494 
    9700     598.089570092351    -354.926836202896    -346.654757735711     6094.50894560293     6697.20848671687      5842.4106870788     1817.74976343527 
    9800     593.148260204467    -354.755208527038    -346.551472504142    -1987.27878952654     2381.33263578071     192.020930292774     1835.66085998641 
    9900     505.179193299717    -353.333578761338     -346.34652843321    -4062.84558227468    -7457.46240088066     -8906.3687529681     1867.00723707949 
   10000      640.04164403815    -355.121933466737    -346.269622765295     3330.08250216386     3289.97148208813     630.767846407695     1826.61829315438 
Loop time of 2.64172 on 1 procs for 10000 steps with 108 atoms

Performance: 327.060 ns/day, 0.073 hours/ns, 3785.420 timesteps/s
99.9% CPU use with 1 MPI tasks x no OpenMP threads

MPI task timing breakdown:
Section |  min time  |  avg time  |  max time  |%varavg| %total
---------------------------------------------------------------
Pair    | 2.4589     | 2.4589     | 2.4589     |   0.0 | 93.08
Neigh   | 0          | 0          | 0          |   0.0 |  0.00
Comm    | 0.069086   | 0.069086   | 0.069086   |   0.0 |  2.62
Output  | 0.033708   | 0.033708   | 0.033708   |   0.0 |  1.28
Modify  | 0.062228   | 0.062228   | 0.062228   |   0.0 |  2.36
Other   |            | 0.01784    |            |       |  0.68

Nlocal:    108 ave 108 max 108 min
Histogram: 1 0 0 0 0 0 0 0 0 0
Nghost:    1580 ave 1580 max 1580 min
Histogram: 1 0 0 0 0 0 0 0 0 0
Neighs:    7560 ave 7560 max 7560 min
Histogram: 1 0 0 0 0 0 0 0 0 0

Total # of neighbors = 7560
Ave neighs/atom = 70
Neighbor list builds = 0
Dangerous builds = 0
Total wall time: 0:00:02
