no_spin                                 
   1.00000000000000     
    -1.435000    1.435000    1.435000
     1.435000   -1.435000    1.435000
     1.435000    1.435000   -1.435000
   Fe
     1
Direct
  0.000000  0.000000  0.000000
 
   28   28   28
 0.99973464305E+02 0.96873598818E+02 0.88154987639E+02 0.75363218734E+02 0.60524845059E+02
 0.45620992698E+02 0.32224222127E+02 0.21351468359E+02 0.13456376937E+02 0.84683940267E+01
 0.58560372527E+01 0.47526516719E+01 0.42093508436E+01 0.38683791453E+01 0.37529235436E+01
 0.38683791453E+01 0.42093508436E+01 0.47526516719E+01 0.58560372527E+01 0.84683940267E+01
 0.13456376937E+02 0.21351468359E+02 0.32224222127E+02 0.45620992698E+02 0.60524845059E+02
 0.75363218734E+02 0.88154987639E+02 0.96873598818E+02 0.96873598818E+02 0.95861765028E+02
 0.89079605799E+02 0.77755771513E+02 0.63760780927E+02 0.49085784931E+02 0.35423919710E+02
 0.23958304200E+02 0.15315509824E+02 0.95901585603E+01 0.63951329277E+01 0.49619662084E+01
 0.43335094081E+01 0.39284956678E+01 0.37399298765E+01 0.37777936519E+01 0.40407251612E+01
 0.45104802792E+01 0.53021915965E+01 0.72204786395E+01 0.11189602944E+02 0.17867116777E+02
 0.27487255043E+02 0.39782348425E+02 0.53941093153E+02 0.68598818244E+02 0.81928853255E+02
 0.91924937241E+02 0.88154987639E+02 0.89079605799E+02 0.84530803944E+02 0.75340282821E+02
 0.63072680124E+02 0.49570488462E+02 0.36526038159E+02 0.25217121350E+02 0.16409178470E+02
 0.10349659096E+02 0.68001457373E+01 0.51148695276E+01 0.44007016312E+01 0.39509703377E+01
 0.37016171588E+01 0.36660447765E+01 0.38450286178E+01 0.42318163457E+01 0.48174216865E+01
 0.60746071686E+01 0.89157379699E+01 0.14091794978E+02 0.21989220953E+02 0.32527260028E+02
 0.45113927805E+02 0.58636355352E+02 0.71519274886E+02 0.81928853255E+02 0.75363218734E+02
 0.77755771513E+02 0.75340282821E+02 0.68557985032E+02 0.58585998491E+02 0.46989133052E+02
 0.35331933562E+02 0.24892350009E+02 0.16516812970E+02 0.10574725306E+02 0.69650426698E+01
 0.51730916752E+01 0.44049465719E+01 0.39319696198E+01 0.36399224598E+01 0.35429745372E+01
 0.36415443163E+01 0.39353085290E+01 0.44101600757E+01 0.51804618571E+01 0.69756036906E+01
 0.10590602397E+02 0.16540775912E+02 0.24926550819E+02 0.35376261206E+02 0.47040002300E+02
 0.58636355352E+02 0.68598818244E+02 0.60524845059E+02 0.63760780927E+02 0.63072680124E+02
 0.58585998491E+02 0.51088918158E+02 0.41800774355E+02 0.32058885925E+02 0.23045573997E+02
 0.15614909989E+02 0.10209607986E+02 0.68385509615E+01 0.51110354651E+01 0.43471044001E+01
 0.38717400162E+01 0.35579677735E+01 0.34173809780E+01 0.34477444115E+01 0.36500696671E+01
 0.40249952568E+01 0.45595050286E+01 0.55645445954E+01 0.77845862207E+01 0.11822380525E+02
 0.17943364942E+02 0.25991605646E+02 0.35376261206E+02 0.45113927805E+02 0.53941093153E+02
 0.45620992698E+02 0.49085784931E+02 0.49570488462E+02 0.46989133052E+02 0.41800774355E+02
 0.34877895913E+02 0.27279444209E+02 0.20018043742E+02 0.13882872788E+02 0.93319260606E+01
 0.64443569193E+01 0.49333880749E+01 0.42338801904E+01 0.37748367334E+01 0.34600959317E+01
 0.32960176689E+01 0.32762319231E+01 0.33994488705E+01 0.36721468981E+01 0.40953276917E+01
 0.46829088585E+01 0.58646117533E+01 0.82639988731E+01 0.12275325738E+02 0.17943364942E+02
 0.24926550819E+02 0.32527260028E+02 0.39782348425E+02 0.32224222127E+02 0.35423919710E+02
 0.36526038159E+02 0.35331933562E+02 0.32058885925E+02 0.27279444209E+02 0.21772098120E+02
 0.16340545750E+02 0.11653321828E+02 0.81289665386E+01 0.58732777550E+01 0.46757110889E+01
 0.40767693918E+01 0.36496172407E+01 0.33518670558E+01 0.31834032784E+01 0.31334097541E+01
 0.31966608549E+01 0.33792182391E+01 0.36926910995E+01 0.41376886326E+01 0.47567198828E+01
 0.59784050980E+01 0.82639988731E+01 0.11822380525E+02 0.16540775912E+02 0.21989220953E+02
 0.27487255043E+02 0.21351468359E+02 0.23958304200E+02 0.25217121350E+02 0.24892350009E+02
 0.23045573997E+02 0.20018043742E+02 0.16340545750E+02 0.12603283781E+02 0.93240145916E+01
 0.68416177119E+01 0.52504841776E+01 0.43877786063E+01 0.38895875928E+01 0.35068840834E+01
 0.32396875191E+01 0.30821796817E+01 0.30200224532E+01 0.30441691294E+01 0.31572739494E+01
 0.33724430618E+01 0.37040637005E+01 0.41514888230E+01 0.47567198828E+01 0.58646117533E+01
 0.77845862207E+01 0.10590602397E+02 0.14091794978E+02 0.17867116777E+02 0.13456376937E+02
 0.15315509824E+02 0.16409178470E+02 0.16516812970E+02 0.15614909989E+02 0.13882872788E+02
 0.11653321828E+02 0.93240145916E+01 0.72576113524E+01 0.56934153526E+01 0.46891060987E+01
 0.41063967791E+01 0.36869243106E+01 0.33580486700E+01 0.31300251888E+01 0.29936417949E+01
 0.29329423157E+01 0.29363293372E+01 0.30025937450E+01 0.31418085223E+01 0.33709993126E+01
 0.37040637005E+01 0.41376886326E+01 0.46829088585E+01 0.55645445954E+01 0.69756036906E+01
 0.89157379699E+01 0.11189602944E+02 0.84683940267E+01 0.95901585603E+01 0.10349659096E+02
 0.10574725306E+02 0.10209607986E+02 0.93319260606E+01 0.81289665386E+01 0.68416177119E+01
 0.56934153526E+01 0.48241818826E+01 0.42451166096E+01 0.38319563786E+01 0.34829486513E+01
 0.32135335882E+01 0.30285965891E+01 0.29183260369E+01 0.28674550201E+01 0.28636640690E+01
 0.29028379943E+01 0.29908450679E+01 0.31418085223E+01 0.33724430618E+01 0.36926910995E+01
 0.40953276917E+01 0.45595050286E+01 0.51804618571E+01 0.60746071686E+01 0.72204786395E+01
 0.58560372527E+01 0.63951329277E+01 0.68001457373E+01 0.69650426698E+01 0.68385509615E+01
 0.64443569193E+01 0.58732777550E+01 0.52504841776E+01 0.46891060987E+01 0.42451166096E+01
 0.38882796475E+01 0.35645550340E+01 0.32907249668E+01 0.30818916923E+01 0.29399617896E+01
 0.28567042492E+01 0.28195091002E+01 0.28171870394E+01 0.28442215026E+01 0.29028379943E+01
 0.30025937450E+01 0.31572739494E+01 0.33792182391E+01 0.36721468981E+01 0.40249952568E+01
 0.44101600757E+01 0.48174216865E+01 0.53021915965E+01 0.47526516719E+01 0.49619662084E+01
 0.51148695276E+01 0.51730916752E+01 0.51110354651E+01 0.49333880749E+01 0.46757110889E+01
 0.43877786063E+01 0.41063967791E+01 0.38319563786E+01 0.35645550340E+01 0.33226112372E+01
 0.31214467457E+01 0.29695526786E+01 0.28675805839E+01 0.28098546050E+01 0.27874557297E+01
 0.27917048493E+01 0.28171870394E+01 0.28636640690E+01 0.29363293372E+01 0.30441691294E+01
 0.31966608549E+01 0.33994488705E+01 0.36500696671E+01 0.39353085290E+01 0.42318163457E+01
 0.45104802792E+01 0.42093508436E+01 0.43335094081E+01 0.44007016312E+01 0.44049465719E+01
 0.43471044001E+01 0.42338801904E+01 0.40767693918E+01 0.38895875928E+01 0.36869243106E+01
 0.34829486513E+01 0.32907249668E+01 0.31214467457E+01 0.29833632573E+01 0.28808217725E+01
 0.28140369730E+01 0.27797895375E+01 0.27728036374E+01 0.27874557297E+01 0.28195091002E+01
 0.28674550201E+01 0.29329423157E+01 0.30200224532E+01 0.31334097541E+01 0.32762319231E+01
 0.34477444115E+01 0.36415443163E+01 0.38450286178E+01 0.40407251612E+01 0.38683791453E+01
 0.39284956678E+01 0.39509703377E+01 0.39319696198E+01 0.38717400162E+01 0.37748367334E+01
 0.36496172407E+01 0.35068840834E+01 0.33580486700E+01 0.32135335882E+01 0.30818916923E+01
 0.29695526786E+01 0.28808217725E+01 0.28179271434E+01 0.27811704183E+01 0.27692582116E+01
 0.27797895375E+01 0.28098546050E+01 0.28567042492E+01 0.29183260369E+01 0.29936417949E+01
 0.30821796817E+01 0.31834032784E+01 0.32960176689E+01 0.34173809780E+01 0.35429745372E+01
 0.36660447765E+01 0.37777936519E+01 0.37529235436E+01 0.37399298765E+01 0.37016171588E+01
 0.36399224598E+01 0.35579677735E+01 0.34600959317E+01 0.33518670558E+01 0.32396875191E+01
 0.31300251888E+01 0.30285965891E+01 0.29399617896E+01 0.28675805839E+01 0.28140369730E+01
 0.27811704183E+01 0.27700913342E+01 0.27811704183E+01 0.28140369730E+01 0.28675805839E+01
 0.29399617896E+01 0.30285965891E+01 0.31300251888E+01 0.32396875191E+01 0.33518670558E+01
 0.34600959317E+01 0.35579677735E+01 0.36399224598E+01 0.37016171588E+01 0.37399298765E+01
 0.38683791453E+01 0.37777936519E+01 0.36660447765E+01 0.35429745372E+01 0.34173809780E+01
 0.32960176689E+01 0.31834032784E+01 0.30821796817E+01 0.29936417949E+01 0.29183260369E+01
 0.28567042492E+01 0.28098546050E+01 0.27797895375E+01 0.27692582116E+01 0.27811704183E+01
 0.28179271434E+01 0.28808217725E+01 0.29695526786E+01 0.30818916923E+01 0.32135335882E+01
 0.33580486700E+01 0.35068840834E+01 0.36496172407E+01 0.37748367334E+01 0.38717400162E+01
 0.39319696198E+01 0.39509703377E+01 0.39284956678E+01 0.42093508436E+01 0.40407251612E+01
 0.38450286178E+01 0.36415443163E+01 0.34477444115E+01 0.32762319231E+01 0.31334097541E+01
 0.30200224532E+01 0.29329423157E+01 0.28674550201E+01 0.28195091002E+01 0.27874557297E+01
 0.27728036374E+01 0.27797895375E+01 0.28140369730E+01 0.28808217725E+01 0.29833632573E+01
 0.31214467457E+01 0.32907249668E+01 0.34829486513E+01 0.36869243106E+01 0.38895875928E+01
 0.40767693918E+01 0.42338801904E+01 0.43471044001E+01 0.44049465719E+01 0.44007016312E+01
 0.43335094081E+01 0.47526516719E+01 0.45104802792E+01 0.42318163457E+01 0.39353085290E+01
 0.36500696671E+01 0.33994488705E+01 0.31966608549E+01 0.30441691294E+01 0.29363293372E+01
 0.28636640690E+01 0.28171870394E+01 0.27917048493E+01 0.27874557297E+01 0.28098546050E+01
 0.28675805839E+01 0.29695526786E+01 0.31214467457E+01 0.33226112372E+01 0.35645550340E+01
 0.38319563786E+01 0.41063967791E+01 0.43877786063E+01 0.46757110889E+01 0.49333880749E+01
 0.51110354651E+01 0.51730916752E+01 0.51148695276E+01 0.49619662084E+01 0.58560372527E+01
 0.53021915965E+01 0.48174216865E+01 0.44101600757E+01 0.40249952568E+01 0.36721468981E+01
 0.33792182391E+01 0.31572739494E+01 0.30025937450E+01 0.29028379943E+01 0.28442215026E+01
 0.28171870394E+01 0.28195091002E+01 0.28567042492E+01 0.29399617896E+01 0.30818916923E+01
 0.32907249668E+01 0.35645550340E+01 0.38882796475E+01 0.42451166096E+01 0.46891060987E+01
 0.52504841776E+01 0.58732777550E+01 0.64443569193E+01 0.68385509615E+01 0.69650426698E+01
 0.68001457373E+01 0.63951329277E+01 0.84683940267E+01 0.72204786395E+01 0.60746071686E+01
 0.51804618571E+01 0.45595050286E+01 0.40953276917E+01 0.36926910995E+01 0.33724430618E+01
 0.31418085223E+01 0.29908450679E+01 0.29028379943E+01 0.28636640690E+01 0.28674550201E+01
 0.29183260369E+01 0.30285965891E+01 0.32135335882E+01 0.34829486513E+01 0.38319563786E+01
 0.42451166096E+01 0.48241818826E+01 0.56934153526E+01 0.68416177119E+01 0.81289665386E+01
 0.93319260606E+01 0.10209607986E+02 0.10574725306E+02 0.10349659096E+02 0.95901585603E+01
 0.13456376937E+02 0.11189602944E+02 0.89157379699E+01 0.69756036906E+01 0.55645445954E+01
 0.46829088585E+01 0.41376886326E+01 0.37040637005E+01 0.33709993126E+01 0.31418085223E+01
 0.30025937450E+01 0.29363293372E+01 0.29329423157E+01 0.29936417949E+01 0.31300251888E+01
 0.33580486700E+01 0.36869243106E+01 0.41063967791E+01 0.46891060987E+01 0.56934153526E+01
 0.72576113524E+01 0.93240145916E+01 0.11653321828E+02 0.13882872788E+02 0.15614909989E+02
 0.16516812970E+02 0.16409178470E+02 0.15315509824E+02 0.21351468359E+02 0.17867116777E+02
 0.14091794978E+02 0.10590602397E+02 0.77845862207E+01 0.58646117533E+01 0.47567198828E+01
 0.41514888230E+01 0.37040637005E+01 0.33724430618E+01 0.31572739494E+01 0.30441691294E+01
 0.30200224532E+01 0.30821796817E+01 0.32396875191E+01 0.35068840834E+01 0.38895875928E+01
 0.43877786063E+01 0.52504841776E+01 0.68416177119E+01 0.93240145916E+01 0.12603283781E+02
 0.16340545750E+02 0.20018043742E+02 0.23045573997E+02 0.24892350009E+02 0.25217121350E+02
 0.23958304200E+02 0.32224222127E+02 0.27487255043E+02 0.21989220953E+02 0.16540775912E+02
 0.11822380525E+02 0.82639988731E+01 0.59784050980E+01 0.47567198828E+01 0.41376886326E+01
 0.36926910995E+01 0.33792182391E+01 0.31966608549E+01 0.31334097541E+01 0.31834032784E+01
 0.33518670558E+01 0.36496172407E+01 0.40767693918E+01 0.46757110889E+01 0.58732777550E+01
 0.81289665386E+01 0.11653321828E+02 0.16340545750E+02 0.21772098120E+02 0.27279444209E+02
 0.32058885925E+02 0.35331933562E+02 0.36526038159E+02 0.35423919710E+02 0.45620992698E+02
 0.39782348425E+02 0.32527260028E+02 0.24926550819E+02 0.17943364942E+02 0.12275325738E+02
 0.82639988731E+01 0.58646117533E+01 0.46829088585E+01 0.40953276917E+01 0.36721468981E+01
 0.33994488705E+01 0.32762319231E+01 0.32960176689E+01 0.34600959317E+01 0.37748367334E+01
 0.42338801904E+01 0.49333880749E+01 0.64443569193E+01 0.93319260606E+01 0.13882872788E+02
 0.20018043742E+02 0.27279444209E+02 0.34877895913E+02 0.41800774355E+02 0.46989133052E+02
 0.49570488462E+02 0.49085784931E+02 0.60524845059E+02 0.53941093153E+02 0.45113927805E+02
 0.35376261206E+02 0.25991605646E+02 0.17943364942E+02 0.11822380525E+02 0.77845862207E+01
 0.55645445954E+01 0.45595050286E+01 0.40249952568E+01 0.36500696671E+01 0.34477444115E+01
 0.34173809780E+01 0.35579677735E+01 0.38717400162E+01 0.43471044001E+01 0.51110354651E+01
 0.68385509615E+01 0.10209607986E+02 0.15614909989E+02 0.23045573997E+02 0.32058885925E+02
 0.41800774355E+02 0.51088918158E+02 0.58585998491E+02 0.63072680124E+02 0.63760780927E+02
 0.75363218734E+02 0.68598818244E+02 0.58636355352E+02 0.47040002300E+02 0.35376261206E+02
 0.24926550819E+02 0.16540775912E+02 0.10590602397E+02 0.69756036906E+01 0.51804618571E+01
 0.44101600757E+01 0.39353085290E+01 0.36415443163E+01 0.35429745372E+01 0.36399224598E+01
 0.39319696198E+01 0.44049465719E+01 0.51730916752E+01 0.69650426698E+01 0.10574725306E+02
 0.16516812970E+02 0.24892350009E+02 0.35331933562E+02 0.46989133052E+02 0.58585998491E+02
 0.68557985032E+02 0.75340282821E+02 0.77755771513E+02 0.88154987639E+02 0.81928853255E+02
 0.71519274886E+02 0.58636355352E+02 0.45113927805E+02 0.32527260028E+02 0.21989220953E+02
 0.14091794978E+02 0.89157379699E+01 0.60746071686E+01 0.48174216865E+01 0.42318163457E+01
 0.38450286178E+01 0.36660447765E+01 0.37016171588E+01 0.39509703377E+01 0.44007016312E+01
 0.51148695276E+01 0.68001457373E+01 0.10349659096E+02 0.16409178470E+02 0.25217121350E+02
 0.36526038159E+02 0.49570488462E+02 0.63072680124E+02 0.75340282821E+02 0.84530803944E+02
 0.89079605799E+02 0.96873598818E+02 0.91924937241E+02 0.81928853255E+02 0.68598818244E+02
 0.53941093153E+02 0.39782348425E+02 0.27487255043E+02 0.17867116777E+02 0.11189602944E+02
 0.72204786395E+01 0.53021915965E+01 0.45104802792E+01 0.40407251612E+01 0.37777936519E+01
 0.37399298765E+01 0.39284956678E+01 0.43335094081E+01 0.49619662084E+01 0.63951329277E+01
 0.95901585603E+01 0.15315509824E+02 0.23958304200E+02 0.35423919710E+02 0.49085784931E+02
 0.63760780927E+02 0.77755771513E+02 0.89079605799E+02 0.95861765028E+02 0.96873598818E+02
 0.95861765028E+02 0.89079605799E+02 0.77755771513E+02 0.63760780927E+02 0.49085784931E+02
 0.35423919710E+02 0.23958304200E+02 0.15315509824E+02 0.95901585603E+01 0.63951329277E+01
 0.49619662084E+01 0.43335094081E+01 0.39284956678E+01 0.37399298765E+01 0.37777936519E+01
 0.40407251612E+01 0.45104802792E+01 0.53021915965E+01 0.72204786395E+01 0.11189602944E+02
 0.17867116777E+02 0.27487255043E+02 0.39782348425E+02 0.53941093153E+02 0.68598818244E+02
 0.81928853255E+02 0.91924937241E+02 0.95861765028E+02 0.96873789050E+02 0.91925295195E+02
 0.81929334539E+02 0.68599365626E+02 0.53941647362E+02 0.39782857930E+02 0.27487683056E+02
 0.17867444454E+02 0.11189828703E+02 0.72206147823E+01 0.53022592356E+01 0.45105038299E+01
 0.40407271720E+01 0.37777904371E+01 0.37399283136E+01 0.39284914987E+01 0.43334875593E+01
 0.49619035011E+01 0.63950032736E+01 0.95899400077E+01 0.15315192119E+02 0.23957894971E+02
 0.35423447266E+02 0.49085296464E+02 0.63760335703E+02 0.77755430486E+02 0.89079419936E+02
 0.89079605799E+02 0.91925295195E+02 0.89079909449E+02 0.81071457071E+02 0.69307983714E+02
 0.55645134783E+02 0.41911879329E+02 0.29575913938E+02 0.19596500458E+02 0.12401168914E+02
 0.79111262738E+01 0.56012036828E+01 0.46289803887E+01 0.41118482155E+01 0.37872351037E+01
 0.36778753991E+01 0.37872362917E+01 0.41118338719E+01 0.46289198094E+01 0.56010577503E+01
 0.79108557397E+01 0.12400744621E+02 0.19595913756E+02 0.29575184804E+02 0.41911059484E+02
 0.55644303862E+02 0.69307238155E+02 0.81070893426E+02 0.77755771513E+02 0.81929334539E+02
 0.81071457071E+02 0.75340573986E+02 0.65758254225E+02 0.53891757740E+02 0.41432172051E+02
 0.29844620841E+02 0.20172801353E+02 0.12971629027E+02 0.83053814522E+01 0.57872978570E+01
 0.46842068811E+01 0.41337955839E+01 0.37658279881E+01 0.35969299022E+01 0.36310656607E+01
 0.38679932868E+01 0.42985675862E+01 0.49513049225E+01 0.64311454175E+01 0.95994948491E+01
 0.15091369510E+02 0.23150825353E+02 0.33551558662E+02 0.45572116713E+02 0.58014438695E+02
 0.69307407404E+02 0.63760780927E+02 0.68599365626E+02 0.69307983714E+02 0.65758254225E+02
 0.58586157217E+02 0.48996663583E+02 0.38431443691E+02 0.28244830883E+02 0.19483264974E+02
 0.12776537594E+02 0.83025291896E+01 0.58031539924E+01 0.46658672346E+01 0.41037153853E+01
 0.37134640890E+01 0.35026538836E+01 0.34735871874E+01 0.36257721210E+01 0.39598412822E+01
 0.44599597206E+01 0.53213661889E+01 0.72896650149E+01 0.11064019127E+02 0.17034088679E+02
 0.25170496769E+02 0.34989648688E+02 0.45572251530E+02 0.55644599221E+02 0.49085784931E+02
 0.53941647362E+02 0.55645134783E+02 0.53891757740E+02 0.48996663583E+02 0.41800745859E+02
 0.33438519173E+02 0.25069603542E+02 0.17661556596E+02 0.11854688488E+02 0.78964846400E+01
 0.56334730321E+01 0.45705193085E+01 0.40243241207E+01 0.36327542439E+01 0.34003216195E+01
 0.33256582499E+01 0.34053855888E+01 0.36432164212E+01 0.40407989926E+01 0.45937660315E+01
 0.56651064139E+01 0.79400700851E+01 0.11915098967E+02 0.17742575610E+02 0.25170581547E+02
 0.33551773251E+02 0.41911421822E+02 0.35423919710E+02 0.39782857930E+02 0.41911879329E+02
 0.41432172051E+02 0.38431443691E+02 0.33438519173E+02 0.27279267396E+02 0.20874939935E+02
 0.15051222863E+02 0.10396727127E+02 0.71783393071E+01 0.53136815793E+01 0.44105481286E+01
 0.39034016561E+01 0.35291263491E+01 0.32947787676E+01 0.31941789805E+01 0.32198112224E+01
 0.33737972017E+01 0.36656436551E+01 0.40970797260E+01 0.46922699521E+01 0.58742765463E+01
 0.81826078637E+01 0.11915131353E+02 0.17034202125E+02 0.23151060180E+02 0.29575552832E+02
 0.23958304200E+02 0.27487683056E+02 0.29575913938E+02 0.29844620841E+02 0.28244830883E+02
 0.25069603542E+02 0.20874939935E+02 0.16340324690E+02 0.12115607486E+02 0.86907320547E+01
 0.63064680097E+01 0.49161435892E+01 0.42097866758E+01 0.37523803233E+01 0.34103319877E+01
 0.31905092190E+01 0.30821344175E+01 0.30737052491E+01 0.31636390593E+01 0.33618157450E+01
 0.36818645355E+01 0.41247469761E+01 0.47294001804E+01 0.58742714281E+01 0.79400940928E+01
 0.11064116596E+02 0.15091576076E+02 0.19596237190E+02 0.15315509824E+02 0.17867444454E+02
 0.19596500458E+02 0.20172801353E+02 0.19483264974E+02 0.17661556596E+02 0.15051222863E+02
 0.12115607486E+02 0.93238500489E+01 0.70425758244E+01 0.54545531198E+01 0.45192573626E+01
 0.39877828802E+01 0.35843596155E+01 0.32852741206E+01 0.30915849551E+01 0.29895011789E+01
 0.29647956709E+01 0.30121271109E+01 0.31381136479E+01 0.33583020364E+01 0.36875230387E+01
 0.41247285148E+01 0.46922445382E+01 0.56651039215E+01 0.72897239587E+01 0.95996457167E+01
 0.12400993100E+02 0.95901585603E+01 0.11189828703E+02 0.12401168914E+02 0.12971629027E+02
 0.12776537594E+02 0.11854688488E+02 0.10396727127E+02 0.86907320547E+01 0.70425758244E+01
 0.56933482963E+01 0.47536865151E+01 0.41706754149E+01 0.37533794610E+01 0.34122431792E+01
 0.31625751476E+01 0.30014707504E+01 0.29145344070E+01 0.28867471648E+01 0.29101702828E+01
 0.29874070779E+01 0.31309835693E+01 0.33582900176E+01 0.36818345984E+01 0.40970405909E+01
 0.45937414037E+01 0.53213868946E+01 0.64312360314E+01 0.79110212406E+01 0.63951329277E+01
 0.72206147823E+01 0.79111262738E+01 0.83053814522E+01 0.83025291896E+01 0.78964846400E+01
 0.71783393071E+01 0.63064680097E+01 0.54545531198E+01 0.47536865151E+01 0.42451238580E+01
 0.38593332912E+01 0.35210618092E+01 0.32475347797E+01 0.30495177677E+01 0.29229499794E+01
 0.28551695588E+01 0.28324225280E+01 0.28458386289E+01 0.28947872412E+01 0.29874082235E+01
 0.31381050269E+01 0.33617915546E+01 0.36656088080E+01 0.40407695849E+01 0.44599575534E+01
 0.49513480232E+01 0.56011509132E+01 0.49619662084E+01 0.53022592356E+01 0.56012036828E+01
 0.57872978570E+01 0.58031539924E+01 0.56334730321E+01 0.53136815793E+01 0.49161435892E+01
 0.45192573626E+01 0.41706754149E+01 0.38593332912E+01 0.35645880995E+01 0.33060662214E+01
 0.30997490169E+01 0.29516552775E+01 0.28583358479E+01 0.28103296887E+01 0.27967417965E+01
 0.28094211661E+01 0.28458482128E+01 0.29101829770E+01 0.30121341621E+01 0.31636346087E+01
 0.33737822115E+01 0.36431993436E+01 0.39598349245E+01 0.42985834040E+01 0.46289621094E+01
 0.43335094081E+01 0.45105038299E+01 0.46289803887E+01 0.46842068811E+01 0.46658672346E+01
 0.45705193085E+01 0.44105481286E+01 0.42097866758E+01 0.39877828802E+01 0.37533794610E+01
 0.35210618092E+01 0.33060662214E+01 0.31214722218E+01 0.29760380036E+01 0.28728916694E+01
 0.28097943468E+01 0.27807795267E+01 0.27785100447E+01 0.27967516905E+01 0.28324420335E+01
 0.28867717326E+01 0.29648188188E+01 0.30737216518E+01 0.32198191399E+01 0.34053875520E+01
 0.36257735993E+01 0.38679999603E+01 0.41118487719E+01 0.39284956678E+01 0.40407271720E+01
 0.41118482155E+01 0.41337955839E+01 0.41037153853E+01 0.40243241207E+01 0.39034016561E+01
 0.37523803233E+01 0.35843596155E+01 0.34122431792E+01 0.32475347797E+01 0.30997490169E+01
 0.29760380036E+01 0.28808334614E+01 0.28156788325E+01 0.27794823506E+01 0.27691967755E+01
 0.27807849362E+01 0.28103429607E+01 0.28551904445E+01 0.29145603027E+01 0.29895282762E+01
 0.30821591225E+01 0.31941990345E+01 0.33256731470E+01 0.34735978053E+01 0.36310733910E+01
 0.37872421507E+01 0.37399298765E+01 0.37777904371E+01 0.37872351037E+01 0.37658279881E+01
 0.37134640890E+01 0.36327542439E+01 0.35291263491E+01 0.34103319877E+01 0.32852741206E+01
 0.31625751476E+01 0.30495177677E+01 0.29516552775E+01 0.28728916694E+01 0.28156788325E+01
 0.27811763226E+01 0.27694117317E+01 0.27794832608E+01 0.28097975587E+01 0.28583421124E+01
 0.29229593672E+01 0.30014828195E+01 0.30915989829E+01 0.31905243944E+01 0.32947942528E+01
 0.34003364948E+01 0.35026670811E+01 0.35969402295E+01 0.36778817213E+01 0.37777936519E+01
 0.37399283136E+01 0.36778753991E+01 0.35969299022E+01 0.35026538836E+01 0.34003216195E+01
 0.32947787676E+01 0.31905092190E+01 0.30915849551E+01 0.30014707504E+01 0.29229499794E+01
 0.28583358479E+01 0.28097943468E+01 0.27794823506E+01 0.27694117317E+01 0.27811754940E+01
 0.28156755832E+01 0.28728850937E+01 0.29516455405E+01 0.30495061743E+01 0.31625638236E+01
 0.32852654117E+01 0.34103277378E+01 0.35291273173E+01 0.36327598620E+01 0.37134726134E+01
 0.37658369962E+01 0.37872421507E+01 0.40407251612E+01 0.39284914987E+01 0.37872362917E+01
 0.36310656607E+01 0.34735871874E+01 0.33256582499E+01 0.31941789805E+01 0.30821344175E+01
 0.29895011789E+01 0.29145344070E+01 0.28551695588E+01 0.28103296887E+01 0.27807795267E+01
 0.27691967755E+01 0.27794832608E+01 0.28156755832E+01 0.28808221746E+01 0.29760173773E+01
 0.30997208059E+01 0.32475031845E+01 0.34122134088E+01 0.35843361506E+01 0.37523655673E+01
 0.39033954290E+01 0.40243240946E+01 0.41037182202E+01 0.41337982176E+01 0.41118487719E+01
 0.45104802792E+01 0.43334875593E+01 0.41118338719E+01 0.38679932868E+01 0.36257721210E+01
 0.34053855888E+01 0.32198112224E+01 0.30737052491E+01 0.29647956709E+01 0.28867471648E+01
 0.28324225280E+01 0.27967417965E+01 0.27785100447E+01 0.27807849362E+01 0.28097975587E+01
 0.28728850937E+01 0.29760173773E+01 0.31214386597E+01 0.33060260759E+01 0.35210243629E+01
 0.37533533408E+01 0.39877727156E+01 0.42097913457E+01 0.44105613172E+01 0.45705321441E+01
 0.46658718427E+01 0.46841993834E+01 0.46289621094E+01 0.53021915965E+01 0.49619035011E+01
 0.46289198094E+01 0.42985675862E+01 0.39598412822E+01 0.36432164212E+01 0.33737972017E+01
 0.31636390593E+01 0.30121271109E+01 0.29101702828E+01 0.28458386289E+01 0.28094211661E+01
 0.27967516905E+01 0.28103429607E+01 0.28583421124E+01 0.29516455405E+01 0.30997208059E+01
 0.33060260759E+01 0.35645500655E+01 0.38593137468E+01 0.41706863113E+01 0.45193006761E+01
 0.49162094673E+01 0.53137511711E+01 0.56335249672E+01 0.58031720610E+01 0.57872768183E+01
 0.56011509132E+01 0.72204786395E+01 0.63950032736E+01 0.56010577503E+01 0.49513049225E+01
 0.44599597206E+01 0.40407989926E+01 0.36656436551E+01 0.33618157450E+01 0.31381136479E+01
 0.29874070779E+01 0.28947872412E+01 0.28458482128E+01 0.28324420335E+01 0.28551904445E+01
 0.29229593672E+01 0.30495061743E+01 0.32475031845E+01 0.35210243629E+01 0.38593137468E+01
 0.42451467013E+01 0.47537662042E+01 0.54546860690E+01 0.63066310290E+01 0.71784956004E+01
 0.78965955721E+01 0.83025673633E+01 0.83053400823E+01 0.79110212406E+01 0.11189602944E+02
 0.95899400077E+01 0.79108557397E+01 0.64311454175E+01 0.53213661889E+01 0.45937660315E+01
 0.40970797260E+01 0.36818645355E+01 0.33583020364E+01 0.31309835693E+01 0.29874082235E+01
 0.29101829770E+01 0.28867717326E+01 0.29145603027E+01 0.30014828195E+01 0.31625638236E+01
 0.34122134088E+01 0.37533533408E+01 0.41706863113E+01 0.47537662042E+01 0.56935121951E+01
 0.70428127012E+01 0.86910030302E+01 0.10396975510E+02 0.11854857191E+02 0.12776587832E+02
 0.12971553270E+02 0.12400993100E+02 0.17867116777E+02 0.15315192119E+02 0.12400744621E+02
 0.95994948491E+01 0.72896650149E+01 0.56651064139E+01 0.46922699521E+01 0.41247469761E+01
 0.36875230387E+01 0.33582900176E+01 0.31381050269E+01 0.30121341621E+01 0.29648188188E+01
 0.29895282762E+01 0.30915989829E+01 0.32852654117E+01 0.35843361506E+01 0.39877727156E+01
 0.45193006761E+01 0.54546860690E+01 0.70428127012E+01 0.93241713456E+01 0.12115960005E+02
 0.15051532949E+02 0.17661752362E+02 0.19483299666E+02 0.20172668867E+02 0.19596237190E+02
 0.27487255043E+02 0.23957894971E+02 0.19595913756E+02 0.15091369510E+02 0.11064019127E+02
 0.79400700851E+01 0.58742765463E+01 0.47294001804E+01 0.41247285148E+01 0.36818345984E+01
 0.33617915546E+01 0.31636346087E+01 0.30737216518E+01 0.30821591225E+01 0.31905243944E+01
 0.34103277378E+01 0.37523655673E+01 0.42097913457E+01 0.49162094673E+01 0.63066310290E+01
 0.86910030302E+01 0.12115960005E+02 0.16340696326E+02 0.20875247750E+02 0.25069769301E+02
 0.28244806598E+02 0.29844405118E+02 0.29575552832E+02 0.39782348425E+02 0.35423447266E+02
 0.29575184804E+02 0.23150825353E+02 0.17034088679E+02 0.11915098967E+02 0.81826078637E+01
 0.58742714281E+01 0.46922445382E+01 0.40970405909E+01 0.36656088080E+01 0.33737822115E+01
 0.32198191399E+01 0.31941990345E+01 0.32947942528E+01 0.35291273173E+01 0.39033954290E+01
 0.44105613172E+01 0.53137511711E+01 0.71784956004E+01 0.10396975510E+02 0.15051532949E+02
 0.20875247750E+02 0.27279491705E+02 0.33438586600E+02 0.38431313475E+02 0.41431851173E+02
 0.41911421822E+02 0.53941093153E+02 0.49085296464E+02 0.41911059484E+02 0.33551558662E+02
 0.25170496769E+02 0.17742575610E+02 0.11915131353E+02 0.79400940928E+01 0.56651039215E+01
 0.45937414037E+01 0.40407695849E+01 0.36431993436E+01 0.34053875520E+01 0.33256731470E+01
 0.34003364948E+01 0.36327598620E+01 0.40243240946E+01 0.45705321441E+01 0.56335249672E+01
 0.78965955721E+01 0.11854857191E+02 0.17661752362E+02 0.25069769301E+02 0.33438586600E+02
 0.41800657464E+02 0.48996393918E+02 0.53891325259E+02 0.55644599221E+02 0.68598818244E+02
 0.63760335703E+02 0.55644303862E+02 0.45572116713E+02 0.34989648688E+02 0.25170581547E+02
 0.17034202125E+02 0.11064116596E+02 0.72897239587E+01 0.53213868946E+01 0.44599575534E+01
 0.39598349245E+01 0.36257735993E+01 0.34735978053E+01 0.35026670811E+01 0.37134726134E+01
 0.41037182202E+01 0.46658718427E+01 0.58031720610E+01 0.83025673633E+01 0.12776587832E+02
 0.19483299666E+02 0.28244806598E+02 0.38431313475E+02 0.48996393918E+02 0.58585743460E+02
 0.65757727764E+02 0.69307407404E+02 0.81928853255E+02 0.77755430486E+02 0.69307238155E+02
 0.58014438695E+02 0.45572251530E+02 0.33551773251E+02 0.23151060180E+02 0.15091576076E+02
 0.95996457167E+01 0.64312360314E+01 0.49513480232E+01 0.42985834040E+01 0.38679999603E+01
 0.36310733910E+01 0.35969402295E+01 0.37658369962E+01 0.41337982176E+01 0.46841993834E+01
 0.57872768183E+01 0.83053400823E+01 0.12971553270E+02 0.20172668867E+02 0.29844405118E+02
 0.41431851173E+02 0.53891325259E+02 0.65757727764E+02 0.75339997234E+02 0.81070893426E+02
 0.91924937241E+02 0.89079419936E+02 0.81070893426E+02 0.69307407404E+02 0.55644599221E+02
 0.41911421822E+02 0.29575552832E+02 0.19596237190E+02 0.12400993100E+02 0.79110212406E+01
 0.56011509132E+01 0.46289621094E+01 0.41118487719E+01 0.37872421507E+01 0.36778817213E+01
 0.37872421507E+01 0.41118487719E+01 0.46289621094E+01 0.56011509132E+01 0.79110212406E+01
 0.12400993100E+02 0.19596237190E+02 0.29575552832E+02 0.41911421822E+02 0.55644599221E+02
 0.69307407404E+02 0.81070893426E+02 0.89079419936E+02 0.88154987639E+02 0.89079605799E+02
 0.84530803944E+02 0.75340282821E+02 0.63072680124E+02 0.49570488462E+02 0.36526038159E+02
 0.25217121350E+02 0.16409178470E+02 0.10349659096E+02 0.68001457373E+01 0.51148695276E+01
 0.44007016312E+01 0.39509703377E+01 0.37016171588E+01 0.36660447765E+01 0.38450286178E+01
 0.42318163457E+01 0.48174216865E+01 0.60746071686E+01 0.89157379699E+01 0.14091794978E+02
 0.21989220953E+02 0.32527260028E+02 0.45113927805E+02 0.58636355352E+02 0.71519274886E+02
 0.81928853255E+02 0.89079605799E+02 0.91925295195E+02 0.89079909449E+02 0.81071457071E+02
 0.69307983714E+02 0.55645134783E+02 0.41911879329E+02 0.29575913938E+02 0.19596500458E+02
 0.12401168914E+02 0.79111262738E+01 0.56012036828E+01 0.46289803887E+01 0.41118482155E+01
 0.37872351037E+01 0.36778753991E+01 0.37872362917E+01 0.41118338719E+01 0.46289198094E+01
 0.56010577503E+01 0.79108557397E+01 0.12400744621E+02 0.19595913756E+02 0.29575184804E+02
 0.41911059484E+02 0.55644303862E+02 0.69307238155E+02 0.81070893426E+02 0.84530803944E+02
 0.89079909449E+02 0.88155565924E+02 0.81929636941E+02 0.71520170058E+02 0.58637263008E+02