job_vasp                                
   1.00000000000000     
     5.000000    0.000000    0.000000
     0.000000    5.000000    0.000000
     0.000000    0.000000    7.000000
   H    O 
     2     1
Direct
  0.607049  0.607049  0.583697
  0.392951  0.392951  0.583697
  0.500000  0.500000  0.500000
 
   3   3   2
 0.22501383188E-04 0.86367100831E-04 0.28760453757E-03 0.60286384498E-03 0.90665241621E-03
 0.10267468092E-02 0.91186739508E-03 0.72814731267E-03 0.74607282442E-03 0.11117957484E-02
 0.17370064485E-02 0.24070081264E-02 0.29592876358E-02 0.33367620501E-02 0.35201517782E-02
 0.35036776167E-02 0.33685845294E-02 0.32995533494E-02
