spin                                    
   1.00000000000000     
    -1.435000    1.435000    1.435000
     1.435000   -1.435000    1.435000
     1.435000    1.435000   -1.435000
   Fe
     1
Direct
  0.000000  0.000000  0.000000
 
   28   28   28
 0.10036647056E+03 0.97258956825E+02 0.88559999556E+02 0.75893421882E+02 0.61299631573E+02
 0.46658883823E+02 0.33384203165E+02 0.22394767862E+02 0.14188494315E+02 0.88489421578E+01
 0.59903451754E+01 0.47807874287E+01 0.41981814744E+01 0.38367958367E+01 0.37151407451E+01
 0.38367958367E+01 0.41981814744E+01 0.47807874287E+01 0.59903451754E+01 0.88489421578E+01
 0.14188494315E+02 0.22394767862E+02 0.33384203165E+02 0.46658883823E+02 0.61299631573E+02
 0.75893421882E+02 0.88559999556E+02 0.97258956825E+02 0.97258956825E+02 0.96228480962E+02
 0.89415255362E+02 0.78134583834E+02 0.64314806227E+02 0.49894863001E+02 0.36421873178E+02
 0.24945935883E+02 0.16079505626E+02 0.10033513131E+02 0.65742343798E+01 0.50073855943E+01
 0.43321502787E+01 0.39032723450E+01 0.37050591827E+01 0.37448868549E+01 0.40220184991E+01
 0.45214753790E+01 0.53795784143E+01 0.74772416733E+01 0.11747465942E+02 0.18738479255E+02
 0.28529276587E+02 0.40771366626E+02 0.54710958932E+02 0.69130850567E+02 0.82324779932E+02
 0.92297583651E+02 0.88559999556E+02 0.89415255362E+02 0.84720509033E+02 0.75409829616E+02
 0.63162864254E+02 0.49841218302E+02 0.37030171053E+02 0.25852280866E+02 0.16989277718E+02
 0.10734824343E+02 0.69765674724E+01 0.51653535300E+01 0.44053289928E+01 0.39337041291E+01
 0.36742324702E+01 0.36378521478E+01 0.38250211677E+01 0.42313991116E+01 0.48535033983E+01
 0.62123986820E+01 0.92617494745E+01 0.14694359165E+02 0.22771348278E+02 0.33320707836E+02
 0.45771105549E+02 0.59124499294E+02 0.71915614306E+02 0.82324779932E+02 0.75893421882E+02
 0.78134583834E+02 0.75409829616E+02 0.68281777171E+02 0.58103131960E+02 0.46540498993E+02
 0.35111082603E+02 0.24935503004E+02 0.16711645905E+02 0.10767937576E+02 0.70721325145E+01
 0.52045893247E+01 0.44061478115E+01 0.39198719161E+01 0.36214712080E+01 0.35238774248E+01
 0.36269766861E+01 0.39320196846E+01 0.44274955311E+01 0.52421400908E+01 0.71515924559E+01
 0.10942185527E+02 0.17052255796E+02 0.25505029521E+02 0.35924230615E+02 0.47532397945E+02
 0.59124499294E+02 0.69130850567E+02 0.61299631573E+02 0.64314806227E+02 0.63162864254E+02
 0.58103131960E+02 0.50148643191E+02 0.40698386366E+02 0.31112840548E+02 0.22438417116E+02
 0.15337647961E+02 0.10130522941E+02 0.68236681333E+01 0.50982015178E+01 0.43329863633E+01
 0.38586560294E+01 0.35463840985E+01 0.34085105785E+01 0.34428962294E+01 0.36516932298E+01
 0.40377332824E+01 0.45902278908E+01 0.56418882450E+01 0.79603548517E+01 0.12122238278E+02
 0.18347080406E+02 0.26466444611E+02 0.35924230615E+02 0.45771105549E+02 0.54710958932E+02
 0.46658883823E+02 0.49894863001E+02 0.49841218302E+02 0.46540498993E+02 0.40698386366E+02
 0.33421214785E+02 0.25857205709E+02 0.18924332723E+02 0.13210553347E+02 0.89969131333E+01
 0.62972010473E+01 0.48625793481E+01 0.41943882992E+01 0.37536681712E+01 0.34509085604E+01
 0.32952713901E+01 0.32816792436E+01 0.34100666882E+01 0.36886877443E+01 0.41203565766E+01
 0.47219552554E+01 0.59445370589E+01 0.84235789854E+01 0.12543964547E+02 0.18347080406E+02
 0.25505029521E+02 0.33320707836E+02 0.40771366626E+02 0.33384203165E+02 0.36421873178E+02
 0.37030171053E+02 0.35111082603E+02 0.31112840548E+02 0.25857205709E+02 0.20256839510E+02
 0.15070426062E+02 0.10789208658E+02 0.76407647971E+01 0.56288037828E+01 0.45504141310E+01
 0.40073523350E+01 0.36149744508E+01 0.33400783906E+01 0.31867088071E+01 0.31465843729E+01
 0.32161500266E+01 0.34030002703E+01 0.37203276014E+01 0.41700955547E+01 0.47991381292E+01
 0.60570108684E+01 0.84235789854E+01 0.12122238278E+02 0.17052255796E+02 0.22771348278E+02
 0.28529276587E+02 0.22394767862E+02 0.24945935883E+02 0.25852280866E+02 0.24935503004E+02
 0.22438417116E+02 0.18924332723E+02 0.15070426062E+02 0.11464860849E+02 0.84943924073E+01
 0.63312926011E+01 0.49648070566E+01 0.42234648431E+01 0.37927341288E+01 0.34568725081E+01
 0.32215028461E+01 0.30851471542E+01 0.30367634004E+01 0.30694741227E+01 0.31874178744E+01
 0.34049093556E+01 0.37375603744E+01 0.41863145326E+01 0.47991381292E+01 0.59445370589E+01
 0.79603548517E+01 0.10942185527E+02 0.14694359165E+02 0.18738479255E+02 0.14188494315E+02
 0.16079505626E+02 0.16989277718E+02 0.16711645905E+02 0.15337647961E+02 0.13210553347E+02
 0.10789208658E+02 0.84943924073E+01 0.66093465865E+01 0.52549994154E+01 0.44082787587E+01
 0.39219438675E+01 0.35712247797E+01 0.32946469296E+01 0.31037988044E+01 0.29928201166E+01
 0.29490326970E+01 0.29632516034E+01 0.30357868619E+01 0.31776114306E+01 0.34064879945E+01
 0.37375603744E+01 0.41700955547E+01 0.47219552554E+01 0.56418882450E+01 0.71515924559E+01
 0.92617494745E+01 0.11747465942E+02 0.88489421578E+01 0.10033513131E+02 0.10734824343E+02
 0.10767937576E+02 0.10130522941E+02 0.89969131333E+01 0.76407647971E+01 0.63312926011E+01
 0.52549994154E+01 0.44861070633E+01 0.39916260225E+01 0.36471376675E+01 0.33603217957E+01
 0.31416603370E+01 0.29948304514E+01 0.29116894599E+01 0.28794960587E+01 0.28881621807E+01
 0.29350529357E+01 0.30267406953E+01 0.31776114306E+01 0.34049093556E+01 0.37203276014E+01
 0.41203565766E+01 0.45902278908E+01 0.52421400908E+01 0.62123986820E+01 0.74772416733E+01
 0.59903451754E+01 0.65742343798E+01 0.69765674724E+01 0.70721325145E+01 0.68236681333E+01
 0.62972010473E+01 0.56288037828E+01 0.49648070566E+01 0.44082787587E+01 0.39916260225E+01
 0.36729983483E+01 0.33975837554E+01 0.31730659033E+01 0.30077145972E+01 0.29005829477E+01
 0.28434215265E+01 0.28250016062E+01 0.28357982416E+01 0.28715559498E+01 0.29350529357E+01
 0.30357868619E+01 0.31874178744E+01 0.34030002703E+01 0.36886877443E+01 0.40377332824E+01
 0.44274955311E+01 0.48535033983E+01 0.53795784143E+01 0.47807874287E+01 0.50073855943E+01
 0.51653535300E+01 0.52045893247E+01 0.50982015178E+01 0.48625793481E+01 0.45504141310E+01
 0.42234648431E+01 0.39219438675E+01 0.36471376675E+01 0.33975837554E+01 0.31851514589E+01
 0.30179455519E+01 0.28987581763E+01 0.28249311400E+01 0.27896608300E+01 0.27843421630E+01
 0.28012335975E+01 0.28357982416E+01 0.28881621807E+01 0.29632516034E+01 0.30694741227E+01
 0.32161500266E+01 0.34100666882E+01 0.36516932298E+01 0.39320196846E+01 0.42313991116E+01
 0.45214753790E+01 0.41981814744E+01 0.43321502787E+01 0.44053289928E+01 0.44061478115E+01
 0.43329863633E+01 0.41943882992E+01 0.40073523350E+01 0.37927341288E+01 0.35712247797E+01
 0.33603217957E+01 0.31730659033E+01 0.30179455519E+01 0.28992289893E+01 0.28174345066E+01
 0.27700206483E+01 0.27523560054E+01 0.27588796174E+01 0.27843421630E+01 0.28250016062E+01
 0.28794960587E+01 0.29490326970E+01 0.30367634004E+01 0.31465843729E+01 0.32816792436E+01
 0.34428962294E+01 0.36269766861E+01 0.38250211677E+01 0.40220184991E+01 0.38367958367E+01
 0.39032723450E+01 0.39337041291E+01 0.39198719161E+01 0.38586560294E+01 0.37536681712E+01
 0.36149744508E+01 0.34568725081E+01 0.32946469296E+01 0.31416603370E+01 0.30077145972E+01
 0.28987581763E+01 0.28174345066E+01 0.27639337828E+01 0.27368444230E+01 0.27338697337E+01
 0.27523560054E+01 0.27896608300E+01 0.28434215265E+01 0.29116894599E+01 0.29928201166E+01
 0.30851471542E+01 0.31867088071E+01 0.32952713901E+01 0.34085105785E+01 0.35238774248E+01
 0.36378521478E+01 0.37448868549E+01 0.37151407451E+01 0.37050591827E+01 0.36742324702E+01
 0.36214712080E+01 0.35463840985E+01 0.34509085604E+01 0.33400783906E+01 0.32215028461E+01
 0.31037988044E+01 0.29948304514E+01 0.29005829477E+01 0.28249311400E+01 0.27700206483E+01
 0.27368444230E+01 0.27257601589E+01 0.27368444230E+01 0.27700206483E+01 0.28249311400E+01
 0.29005829477E+01 0.29948304514E+01 0.31037988044E+01 0.32215028461E+01 0.33400783906E+01
 0.34509085604E+01 0.35463840985E+01 0.36214712080E+01 0.36742324702E+01 0.37050591827E+01
 0.38367958367E+01 0.37448868549E+01 0.36378521478E+01 0.35238774248E+01 0.34085105785E+01
 0.32952713901E+01 0.31867088071E+01 0.30851471542E+01 0.29928201166E+01 0.29116894599E+01
 0.28434215265E+01 0.27896608300E+01 0.27523560054E+01 0.27338697337E+01 0.27368444230E+01
 0.27639337828E+01 0.28174345066E+01 0.28987581763E+01 0.30077145972E+01 0.31416603370E+01
 0.32946469296E+01 0.34568725081E+01 0.36149744508E+01 0.37536681712E+01 0.38586560294E+01
 0.39198719161E+01 0.39337041291E+01 0.39032723450E+01 0.41981814744E+01 0.40220184991E+01
 0.38250211677E+01 0.36269766861E+01 0.34428962294E+01 0.32816792436E+01 0.31465843729E+01
 0.30367634004E+01 0.29490326970E+01 0.28794960587E+01 0.28250016062E+01 0.27843421630E+01
 0.27588796174E+01 0.27523560054E+01 0.27700206483E+01 0.28174345066E+01 0.28992289893E+01
 0.30179455519E+01 0.31730659033E+01 0.33603217957E+01 0.35712247797E+01 0.37927341288E+01
 0.40073523350E+01 0.41943882992E+01 0.43329863633E+01 0.44061478115E+01 0.44053289928E+01
 0.43321502787E+01 0.47807874287E+01 0.45214753790E+01 0.42313991116E+01 0.39320196846E+01
 0.36516932298E+01 0.34100666882E+01 0.32161500266E+01 0.30694741227E+01 0.29632516034E+01
 0.28881621807E+01 0.28357982416E+01 0.28012335975E+01 0.27843421630E+01 0.27896608300E+01
 0.28249311400E+01 0.28987581763E+01 0.30179455519E+01 0.31851514589E+01 0.33975837554E+01
 0.36471376675E+01 0.39219438675E+01 0.42234648431E+01 0.45504141310E+01 0.48625793481E+01
 0.50982015178E+01 0.52045893247E+01 0.51653535300E+01 0.50073855943E+01 0.59903451754E+01
 0.53795784143E+01 0.48535033983E+01 0.44274955311E+01 0.40377332824E+01 0.36886877443E+01
 0.34030002703E+01 0.31874178744E+01 0.30357868619E+01 0.29350529357E+01 0.28715559498E+01
 0.28357982416E+01 0.28250016062E+01 0.28434215265E+01 0.29005829477E+01 0.30077145972E+01
 0.31730659033E+01 0.33975837554E+01 0.36729983483E+01 0.39916260225E+01 0.44082787587E+01
 0.49648070566E+01 0.56288037828E+01 0.62972010473E+01 0.68236681333E+01 0.70721325145E+01
 0.69765674724E+01 0.65742343798E+01 0.88489421578E+01 0.74772416733E+01 0.62123986820E+01
 0.52421400908E+01 0.45902278908E+01 0.41203565766E+01 0.37203276014E+01 0.34049093556E+01
 0.31776114306E+01 0.30267406953E+01 0.29350529357E+01 0.28881621807E+01 0.28794960587E+01
 0.29116894599E+01 0.29948304514E+01 0.31416603370E+01 0.33603217957E+01 0.36471376675E+01
 0.39916260225E+01 0.44861070633E+01 0.52549994154E+01 0.63312926011E+01 0.76407647971E+01
 0.89969131333E+01 0.10130522941E+02 0.10767937576E+02 0.10734824343E+02 0.10033513131E+02
 0.14188494315E+02 0.11747465942E+02 0.92617494745E+01 0.71515924559E+01 0.56418882450E+01
 0.47219552554E+01 0.41700955547E+01 0.37375603744E+01 0.34064879945E+01 0.31776114306E+01
 0.30357868619E+01 0.29632516034E+01 0.29490326970E+01 0.29928201166E+01 0.31037988044E+01
 0.32946469296E+01 0.35712247797E+01 0.39219438675E+01 0.44082787587E+01 0.52549994154E+01
 0.66093465865E+01 0.84943924073E+01 0.10789208658E+02 0.13210553347E+02 0.15337647961E+02
 0.16711645905E+02 0.16989277718E+02 0.16079505626E+02 0.22394767862E+02 0.18738479255E+02
 0.14694359165E+02 0.10942185527E+02 0.79603548517E+01 0.59445370589E+01 0.47991381292E+01
 0.41863145326E+01 0.37375603744E+01 0.34049093556E+01 0.31874178744E+01 0.30694741227E+01
 0.30367634004E+01 0.30851471542E+01 0.32215028461E+01 0.34568725081E+01 0.37927341288E+01
 0.42234648431E+01 0.49648070566E+01 0.63312926011E+01 0.84943924073E+01 0.11464860849E+02
 0.15070426062E+02 0.18924332723E+02 0.22438417116E+02 0.24935503004E+02 0.25852280866E+02
 0.24945935883E+02 0.33384203165E+02 0.28529276587E+02 0.22771348278E+02 0.17052255796E+02
 0.12122238278E+02 0.84235789854E+01 0.60570108684E+01 0.47991381292E+01 0.41700955547E+01
 0.37203276014E+01 0.34030002703E+01 0.32161500266E+01 0.31465843729E+01 0.31867088071E+01
 0.33400783906E+01 0.36149744508E+01 0.40073523350E+01 0.45504141310E+01 0.56288037828E+01
 0.76407647971E+01 0.10789208658E+02 0.15070426062E+02 0.20256839510E+02 0.25857205709E+02
 0.31112840548E+02 0.35111082603E+02 0.37030171053E+02 0.36421873178E+02 0.46658883823E+02
 0.40771366626E+02 0.33320707836E+02 0.25505029521E+02 0.18347080406E+02 0.12543964547E+02
 0.84235789854E+01 0.59445370589E+01 0.47219552554E+01 0.41203565766E+01 0.36886877443E+01
 0.34100666882E+01 0.32816792436E+01 0.32952713901E+01 0.34509085604E+01 0.37536681712E+01
 0.41943882992E+01 0.48625793481E+01 0.62972010473E+01 0.89969131333E+01 0.13210553347E+02
 0.18924332723E+02 0.25857205709E+02 0.33421214785E+02 0.40698386366E+02 0.46540498993E+02
 0.49841218302E+02 0.49894863001E+02 0.61299631573E+02 0.54710958932E+02 0.45771105549E+02
 0.35924230615E+02 0.26466444611E+02 0.18347080406E+02 0.12122238278E+02 0.79603548517E+01
 0.56418882450E+01 0.45902278908E+01 0.40377332824E+01 0.36516932298E+01 0.34428962294E+01
 0.34085105785E+01 0.35463840985E+01 0.38586560294E+01 0.43329863633E+01 0.50982015178E+01
 0.68236681333E+01 0.10130522941E+02 0.15337647961E+02 0.22438417116E+02 0.31112840548E+02
 0.40698386366E+02 0.50148643191E+02 0.58103131960E+02 0.63162864254E+02 0.64314806227E+02
 0.75893421882E+02 0.69130850567E+02 0.59124499294E+02 0.47532397945E+02 0.35924230615E+02
 0.25505029521E+02 0.17052255796E+02 0.10942185527E+02 0.71515924559E+01 0.52421400908E+01
 0.44274955311E+01 0.39320196846E+01 0.36269766861E+01 0.35238774248E+01 0.36214712080E+01
 0.39198719161E+01 0.44061478115E+01 0.52045893247E+01 0.70721325145E+01 0.10767937576E+02
 0.16711645905E+02 0.24935503004E+02 0.35111082603E+02 0.46540498993E+02 0.58103131960E+02
 0.68281777171E+02 0.75409829616E+02 0.78134583834E+02 0.88559999556E+02 0.82324779932E+02
 0.71915614306E+02 0.59124499294E+02 0.45771105549E+02 0.33320707836E+02 0.22771348278E+02
 0.14694359165E+02 0.92617494745E+01 0.62123986820E+01 0.48535033983E+01 0.42313991116E+01
 0.38250211677E+01 0.36378521478E+01 0.36742324702E+01 0.39337041291E+01 0.44053289928E+01
 0.51653535300E+01 0.69765674724E+01 0.10734824343E+02 0.16989277718E+02 0.25852280866E+02
 0.37030171053E+02 0.49841218302E+02 0.63162864254E+02 0.75409829616E+02 0.84720509033E+02
 0.89415255362E+02 0.97258956825E+02 0.92297583651E+02 0.82324779932E+02 0.69130850567E+02
 0.54710958932E+02 0.40771366626E+02 0.28529276587E+02 0.18738479255E+02 0.11747465942E+02
 0.74772416733E+01 0.53795784143E+01 0.45214753790E+01 0.40220184991E+01 0.37448868549E+01
 0.37050591827E+01 0.39032723450E+01 0.43321502787E+01 0.50073855943E+01 0.65742343798E+01
 0.10033513131E+02 0.16079505626E+02 0.24945935883E+02 0.36421873178E+02 0.49894863001E+02
 0.64314806227E+02 0.78134583834E+02 0.89415255362E+02 0.96228480962E+02 0.97258956825E+02
 0.96228480962E+02 0.89415255362E+02 0.78134583834E+02 0.64314806227E+02 0.49894863001E+02
 0.36421873178E+02 0.24945935883E+02 0.16079505626E+02 0.10033513131E+02 0.65742343798E+01
 0.50073855943E+01 0.43321502787E+01 0.39032723450E+01 0.37050591827E+01 0.37448868549E+01
 0.40220184991E+01 0.45214753790E+01 0.53795784143E+01 0.74772416733E+01 0.11747465942E+02
 0.18738479255E+02 0.28529276587E+02 0.40771366626E+02 0.54710958932E+02 0.69130850567E+02
 0.82324779932E+02 0.92297583651E+02 0.96228480962E+02 0.97258833879E+02 0.92297353034E+02
 0.82324471298E+02 0.69130501529E+02 0.54710607734E+02 0.40771045536E+02 0.28529007650E+02
 0.18738272908E+02 0.11747321992E+02 0.74771520739E+01 0.53795305732E+01 0.45214553474E+01
 0.40220136335E+01 0.37448878998E+01 0.37050618829E+01 0.39032784930E+01 0.43321679398E+01
 0.50074280239E+01 0.65743173516E+01 0.10033650762E+02 0.16079705444E+02 0.24946194426E+02
 0.36422173529E+02 0.49895175516E+02 0.64315092598E+02 0.78134804002E+02 0.89415375620E+02
 0.89415255362E+02 0.92297353034E+02 0.89415062356E+02 0.81348455980E+02 0.69609583813E+02
 0.56102379643E+02 0.42586328458E+02 0.30385730990E+02 0.20356047178E+02 0.12943797847E+02
 0.81921994095E+01 0.56982860683E+01 0.46489958813E+01 0.41015646172E+01 0.37610362961E+01
 0.36468787125E+01 0.37610402027E+01 0.41015813662E+01 0.46490422436E+01 0.56983841299E+01
 0.81923722984E+01 0.12944063831E+02 0.20356412990E+02 0.30386186070E+02 0.42586842080E+02
 0.56102902582E+02 0.69610055062E+02 0.81348813472E+02 0.78134583834E+02 0.82324471298E+02
 0.81348455980E+02 0.75409651307E+02 0.65666136448E+02 0.53802698185E+02 0.41510086636E+02
 0.30133785823E+02 0.20574454045E+02 0.13329583676E+02 0.85218075137E+01 0.58712445171E+01
 0.47030454226E+01 0.41288244380E+01 0.37479074560E+01 0.35742349023E+01 0.36101695852E+01
 0.38560941179E+01 0.43053204006E+01 0.49941576342E+01 0.65740757100E+01 0.99173393650E+01
 0.15584698808E+02 0.23718644751E+02 0.34056227778E+02 0.45943300288E+02 0.58297759689E+02
 0.69609945503E+02 0.64314806227E+02 0.69130501529E+02 0.69609583813E+02 0.65666136448E+02
 0.58103045763E+02 0.48309831401E+02 0.37804276828E+02 0.27862675893E+02 0.19366894676E+02
 0.12816504143E+02 0.83689461858E+01 0.58334438594E+01 0.46679539498E+01 0.40967005818E+01
 0.37016088811E+01 0.34896071934E+01 0.34622798865E+01 0.36194188829E+01 0.39634800835E+01
 0.44805608733E+01 0.53820704922E+01 0.74438745274E+01 0.11340267747E+02 0.17396960952E+02
 0.25548299451E+02 0.35345140765E+02 0.45943213557E+02 0.56102712069E+02 0.49894863001E+02
 0.54710607734E+02 0.56102379643E+02 0.53802698185E+02 0.48309831401E+02 0.40698422805E+02
 0.32248033766E+02 0.24093200878E+02 0.17040391086E+02 0.11549762804E+02 0.77762449608E+01
 0.55832101845E+01 0.45411033438E+01 0.40063529970E+01 0.36219881817E+01 0.33949873853E+01
 0.33248180456E+01 0.34087225675E+01 0.36518226018E+01 0.40575764833E+01 0.46234548092E+01
 0.57310262887E+01 0.80766568923E+01 0.12134790336E+02 0.18037569697E+02 0.25548246468E+02
 0.34056091191E+02 0.42586609913E+02 0.36421873178E+02 0.40771045536E+02 0.42586328458E+02
 0.41510086636E+02 0.37804276828E+02 0.32248033766E+02 0.25857332558E+02 0.19580836271E+02
 0.14111038886E+02 0.98418890154E+01 0.69024132407E+01 0.51831850496E+01 0.43421255717E+01
 0.38673125811E+01 0.35137543216E+01 0.32930673411E+01 0.32015304672E+01 0.32330420159E+01
 0.33910618355E+01 0.36866393720E+01 0.41227732147E+01 0.47263206889E+01 0.59375771336E+01
 0.83067212834E+01 0.12134772637E+02 0.17396892494E+02 0.23718497825E+02 0.30385952530E+02
 0.24945935883E+02 0.28529007650E+02 0.30385730990E+02 0.30133785823E+02 0.27862675893E+02
 0.24093200878E+02 0.19580836271E+02 0.15070571027E+02 0.11121781585E+02 0.80508974448E+01
 0.59524016549E+01 0.47289992105E+01 0.41042057089E+01 0.36952824011E+01 0.33860079197E+01
 0.31878736647E+01 0.30936198411E+01 0.30939968974E+01 0.31889536660E+01 0.33896513838E+01
 0.37109086748E+01 0.41548168448E+01 0.47645149990E+01 0.59375841491E+01 0.80766481036E+01
 0.11340212763E+02 0.15584572832E+02 0.20356210259E+02 0.16079505626E+02 0.18738272908E+02
 0.20356047178E+02 0.20574454045E+02 0.19366894676E+02 0.17040391086E+02 0.14111038886E+02
 0.11121781585E+02 0.84944908547E+01 0.64672901536E+01 0.51012313897E+01 0.43058176264E+01
 0.38545645136E+01 0.35084766965E+01 0.32502875683E+01 0.30844671682E+01 0.30008529948E+01
 0.29879523093E+01 0.30422070858E+01 0.31713642252E+01 0.33918071231E+01 0.37193683457E+01
 0.41548316091E+01 0.47263433491E+01 0.57310367512E+01 0.74438461838E+01 0.99172507317E+01
 0.12943910267E+02 0.10033513131E+02 0.11747321992E+02 0.12943797847E+02 0.13329583676E+02
 0.12816504143E+02 0.11549762804E+02 0.98418890154E+01 0.80508974448E+01 0.64672901536E+01
 0.52550302234E+01 0.44458006214E+01 0.39548153116E+01 0.36073313771E+01 0.33239915706E+01
 0.31180347714E+01 0.29880106525E+01 0.29223393246E+01 0.29086399971E+01 0.29408484148E+01
 0.30226250086E+01 0.31669895579E+01 0.33918160518E+01 0.37109315812E+01 0.41228048148E+01
 0.46234790855E+01 0.53820660633E+01 0.65740251061E+01 0.81922712240E+01 0.65742343798E+01
 0.74771520739E+01 0.81921994095E+01 0.85218075137E+01 0.83689461858E+01 0.77762449608E+01
 0.69024132407E+01 0.59524016549E+01 0.51012313897E+01 0.44458006214E+01 0.39916105649E+01
 0.36598513071E+01 0.33779857456E+01 0.31554189835E+01 0.29985840082E+01 0.29028958573E+01
 0.28571665747E+01 0.28496496840E+01 0.28731527427E+01 0.29280107574E+01 0.30226239283E+01
 0.31713701574E+01 0.33896689341E+01 0.36866656503E+01 0.40576006565E+01 0.44805678741E+01
 0.49941346355E+01 0.56983270437E+01 0.50073855943E+01 0.53795305732E+01 0.56982860683E+01
 0.58712445171E+01 0.58334438594E+01 0.55832101845E+01 0.51831850496E+01 0.47289992105E+01
 0.43058176264E+01 0.39548153116E+01 0.36598513071E+01 0.33975568784E+01 0.31788420342E+01
 0.30119925482E+01 0.28982793387E+01 0.28324097286E+01 0.28050837532E+01 0.28065211394E+01
 0.28297917801E+01 0.28731454926E+01 0.29408385361E+01 0.30422008650E+01 0.31889554411E+01
 0.33910712604E+01 0.36518341397E+01 0.39634850636E+01 0.43053108130E+01 0.46490146123E+01
 0.43321502787E+01 0.45214553474E+01 0.46489958813E+01 0.47030454226E+01 0.46679539498E+01
 0.45411033438E+01 0.43421255717E+01 0.41042057089E+01 0.38545645136E+01 0.36073313771E+01
 0.33779857456E+01 0.31788420342E+01 0.30179283236E+01 0.28987943907E+01 0.28206036445E+01
 0.27789086059E+01 0.27670868926E+01 0.27781373135E+01 0.28065136794E+01 0.28496349907E+01
 0.29086212300E+01 0.29879339349E+01 0.30939826321E+01 0.32330332267E+01 0.34087178036E+01
 0.36194147090E+01 0.38560868201E+01 0.41015687295E+01 0.39032723450E+01 0.40220136335E+01
 0.41015646172E+01 0.41288244380E+01 0.40967005818E+01 0.40063529970E+01 0.38673125811E+01
 0.36952824011E+01 0.35084766965E+01 0.33239915706E+01 0.31554189835E+01 0.30119925482E+01
 0.28987943907E+01 0.28174282453E+01 0.27668395211E+01 0.27441735219E+01 0.27456019062E+01
 0.27670825751E+01 0.28050735966E+01 0.28571508778E+01 0.29223198501E+01 0.30008322021E+01
 0.30936000194E+01 0.32015131149E+01 0.33248036852E+01 0.34622682856E+01 0.36101601972E+01
 0.37610325607E+01 0.37050591827E+01 0.37448878998E+01 0.37610362961E+01 0.37479074560E+01
 0.37016088811E+01 0.36219881817E+01 0.35137543216E+01 0.33860079197E+01 0.32502875683E+01
 0.31180347714E+01 0.29985840082E+01 0.28982793387E+01 0.28206036445E+01 0.27668395211E+01
 0.27368417057E+01 0.27296976586E+01 0.27441722810E+01 0.27789054966E+01 0.28324046631E+01
 0.29028890799E+01 0.29880024797E+01 0.30844578070E+01 0.31878632268E+01 0.32930560163E+01
 0.33949756586E+01 0.34895959715E+01 0.35742254232E+01 0.36468722222E+01 0.37448868549E+01
 0.37050618829E+01 0.36468787125E+01 0.35742349023E+01 0.34896071934E+01 0.33949873853E+01
 0.32930673411E+01 0.31878736647E+01 0.30844671682E+01 0.29880106525E+01 0.29028958573E+01
 0.28324097286E+01 0.27789086059E+01 0.27441735219E+01 0.27296976586E+01 0.27368416337E+01
 0.27668408281E+01 0.28206076042E+01 0.28982865514E+01 0.29985940795E+01 0.31180463059E+01
 0.32502985430E+01 0.33860162984E+01 0.35137587164E+01 0.36219883302E+01 0.37016057436E+01
 0.37479029134E+01 0.37610325607E+01 0.40220184991E+01 0.39032784930E+01 0.37610402027E+01
 0.36101695852E+01 0.34622798865E+01 0.33248180456E+01 0.32015304672E+01 0.30936198411E+01
 0.30008529948E+01 0.29223393246E+01 0.28571665747E+01 0.28050837532E+01 0.27670868926E+01
 0.27456019062E+01 0.27441722810E+01 0.27668408281E+01 0.28174354477E+01 0.28988093318E+01
 0.30120149792E+01 0.31554466502E+01 0.33240209543E+01 0.35085040960E+01 0.36953049980E+01
 0.38673291100E+01 0.40063638190E+01 0.40967072439E+01 0.41288289417E+01 0.41015687295E+01
 0.45214753790E+01 0.43321679398E+01 0.41015813662E+01 0.38560941179E+01 0.36194188829E+01
 0.34087225675E+01 0.32330420159E+01 0.30939968974E+01 0.29879523093E+01 0.29086399971E+01
 0.28496496840E+01 0.28065211394E+01 0.27781373135E+01 0.27670825751E+01 0.27789054966E+01
 0.28206076042E+01 0.28988093318E+01 0.30179546408E+01 0.31788763935E+01 0.33780223458E+01
 0.36073641288E+01 0.38545892821E+01 0.41042216732E+01 0.43421351835E+01 0.45411109920E+01
 0.46679639089E+01 0.47030600133E+01 0.46490146123E+01 0.53795784143E+01 0.50074280239E+01
 0.46490422436E+01 0.43053204006E+01 0.39634800835E+01 0.36518226018E+01 0.33910618355E+01
 0.31889536660E+01 0.30422070858E+01 0.29408484148E+01 0.28731527427E+01 0.28297917801E+01
 0.28065136794E+01 0.28050735966E+01 0.28324046631E+01 0.28982865514E+01 0.30120149792E+01
 0.31788763935E+01 0.33975943719E+01 0.36598808648E+01 0.39548280802E+01 0.43058107893E+01
 0.47289775039E+01 0.51831592689E+01 0.55831931492E+01 0.58334455122E+01 0.58712681195E+01
 0.56983270437E+01 0.74772416733E+01 0.65743173516E+01 0.56983841299E+01 0.49941576342E+01
 0.44805608733E+01 0.40575764833E+01 0.36866393720E+01 0.33896513838E+01 0.31713642252E+01
 0.30226250086E+01 0.29280107574E+01 0.28731454926E+01 0.28496349907E+01 0.28571508778E+01
 0.29028890799E+01 0.29985940795E+01 0.31554466502E+01 0.33780223458E+01 0.36598808648E+01
 0.39916157127E+01 0.44457699770E+01 0.51011653086E+01 0.59523137428E+01 0.69023266033E+01
 0.77761845532E+01 0.83689300657E+01 0.85218404253E+01 0.81922712240E+01 0.11747465942E+02
 0.10033650762E+02 0.81923722984E+01 0.65740757100E+01 0.53820704922E+01 0.46234548092E+01
 0.41227732147E+01 0.37109086748E+01 0.33918071231E+01 0.31669895579E+01 0.30226239283E+01
 0.29408385361E+01 0.29086212300E+01 0.29223198501E+01 0.29880024797E+01 0.31180463059E+01
 0.33240209543E+01 0.36073641288E+01 0.39548280802E+01 0.44457699770E+01 0.52549431012E+01
 0.64671515145E+01 0.80507314340E+01 0.98417327769E+01 0.11549654751E+02 0.12816471054E+02
 0.13329631600E+02 0.12943910267E+02 0.18738479255E+02 0.16079705444E+02 0.12944063831E+02
 0.99173393650E+01 0.74438745274E+01 0.57310262887E+01 0.47263206889E+01 0.41548168448E+01
 0.37193683457E+01 0.33918160518E+01 0.31713701574E+01 0.30422008650E+01 0.29879339349E+01
 0.30008322021E+01 0.30844578070E+01 0.32502985430E+01 0.35085040960E+01 0.38545892821E+01
 0.43058107893E+01 0.51011653086E+01 0.64671515145E+01 0.84942896095E+01 0.11121551767E+02
 0.14110829986E+02 0.17040252733E+02 0.19366860372E+02 0.20574529935E+02 0.20356210259E+02
 0.28529276587E+02 0.24946194426E+02 0.20356412990E+02 0.15584698808E+02 0.11340267747E+02
 0.80766568923E+01 0.59375771336E+01 0.47645149990E+01 0.41548316091E+01 0.37109315812E+01
 0.33896689341E+01 0.31889554411E+01 0.30939826321E+01 0.30936000194E+01 0.31878632268E+01
 0.33860162984E+01 0.36953049980E+01 0.41042216732E+01 0.47289775039E+01 0.59523137428E+01
 0.80507314340E+01 0.11121551767E+02 0.15070318036E+02 0.19580616723E+02 0.24093070059E+02
 0.27862669513E+02 0.30133907902E+02 0.30385952530E+02 0.40771366626E+02 0.36422173529E+02
 0.30386186070E+02 0.23718644751E+02 0.17396960952E+02 0.12134790336E+02 0.83067212834E+01
 0.59375841491E+01 0.47263433491E+01 0.41228048148E+01 0.36866656503E+01 0.33910712604E+01
 0.32330332267E+01 0.32015131149E+01 0.32930560163E+01 0.35137587164E+01 0.38673291100E+01
 0.43421351835E+01 0.51831592689E+01 0.69023266033E+01 0.98417327769E+01 0.14110829986E+02
 0.19580616723E+02 0.25857158742E+02 0.32247958826E+02 0.37804332598E+02 0.41510272244E+02
 0.42586609913E+02 0.54710958932E+02 0.49895175516E+02 0.42586842080E+02 0.34056227778E+02
 0.25548299451E+02 0.18037569697E+02 0.12134772637E+02 0.80766481036E+01 0.57310367512E+01
 0.46234790855E+01 0.40576006565E+01 0.36518341397E+01 0.34087178036E+01 0.33248036852E+01
 0.33949756586E+01 0.36219883302E+01 0.40063638190E+01 0.45411109920E+01 0.55831931492E+01
 0.77761845532E+01 0.11549654751E+02 0.17040252733E+02 0.24093070059E+02 0.32247958826E+02
 0.40698446731E+02 0.48309976220E+02 0.53802955660E+02 0.56102712069E+02 0.69130850567E+02
 0.64315092598E+02 0.56102902582E+02 0.45943300288E+02 0.35345140765E+02 0.25548246468E+02
 0.17396892494E+02 0.11340212763E+02 0.74438461838E+01 0.53820660633E+01 0.44805678741E+01
 0.39634850636E+01 0.36194147090E+01 0.34622682856E+01 0.34895959715E+01 0.37016057436E+01
 0.40967072439E+01 0.46679639089E+01 0.58334455122E+01 0.83689300657E+01 0.12816471054E+02
 0.19366860372E+02 0.27862669513E+02 0.37804332598E+02 0.48309976220E+02 0.58103287635E+02
 0.65666458244E+02 0.69609945503E+02 0.82324779932E+02 0.78134804002E+02 0.69610055062E+02
 0.58297759689E+02 0.45943213557E+02 0.34056091191E+02 0.23718497825E+02 0.15584572832E+02
 0.99172507317E+01 0.65740251061E+01 0.49941346355E+01 0.43053108130E+01 0.38560868201E+01
 0.36101601972E+01 0.35742254232E+01 0.37479029134E+01 0.41288289417E+01 0.47030600133E+01
 0.58712681195E+01 0.85218404253E+01 0.13329631600E+02 0.20574529935E+02 0.30133907902E+02
 0.41510272244E+02 0.53802955660E+02 0.65666458244E+02 0.75410011367E+02 0.81348813472E+02
 0.92297583651E+02 0.89415375620E+02 0.81348813472E+02 0.69609945503E+02 0.56102712069E+02
 0.42586609913E+02 0.30385952530E+02 0.20356210259E+02 0.12943910267E+02 0.81922712240E+01
 0.56983270437E+01 0.46490146123E+01 0.41015687295E+01 0.37610325607E+01 0.36468722222E+01
 0.37610325607E+01 0.41015687295E+01 0.46490146123E+01 0.56983270437E+01 0.81922712240E+01
 0.12943910267E+02 0.20356210259E+02 0.30385952530E+02 0.42586609913E+02 0.56102712069E+02
 0.69609945503E+02 0.81348813472E+02 0.89415375620E+02 0.88559999556E+02 0.89415255362E+02
 0.84720509033E+02 0.75409829616E+02 0.63162864254E+02 0.49841218302E+02 0.37030171053E+02
 0.25852280866E+02 0.16989277718E+02 0.10734824343E+02 0.69765674724E+01 0.51653535300E+01
 0.44053289928E+01 0.39337041291E+01 0.36742324702E+01 0.36378521478E+01 0.38250211677E+01
 0.42313991116E+01 0.48535033983E+01 0.62123986820E+01 0.92617494745E+01 0.14694359165E+02
 0.22771348278E+02 0.33320707836E+02 0.45771105549E+02 0.59124499294E+02 0.71915614306E+02
 0.82324779932E+02 0.89415255362E+02 0.92297353034E+02 0.89415062356E+02 0.81348455980E+02
 0.69609583813E+02 0.56102379643E+02 0.42586328458E+02 0.30385730990E+02 0.20356047178E+02
 0.12943797847E+02 0.81921994095E+01 0.56982860683E+01 0.46489958813E+01 0.41015646172E+01
 0.37610362961E+01 0.36468787125E+01 0.37610402027E+01 0.41015813662E+01 0.46490422436E+01
 0.56983841299E+01 0.81923722984E+01 0.12944063831E+02 0.20356412990E+02 0.30386186070E+02
 0.42586842080E+02 0.56102902582E+02 0.69610055062E+02 0.81348813472E+02 0.84720509033E+02
 0.89415062356E+02 0.88559633266E+02 0.82324286087E+02 0.71915053814E+02 0.59123934928E+02