ITEM: TIMESTEP
0
ITEM: NUMBER OF ATOMS
108
ITEM: BOX BOUNDS pp pp pp
0.0000000000000000e+00 1.2150000000000000e+01
0.0000000000000000e+00 1.2149999999999990e+01
0.0000000000000000e+00 1.2149999999999990e+01
ITEM: ATOMS id type xsu ysu zsu fx fy fz 
1 1                    0                    0                    0 -2.22044604925031e-16 2.34534613952064e-14  2.3557544803765e-14 
2 1                    0    0.166666666666629    0.166666666666629 -5.55111512312578e-17 -2.4980018054066e-16 -2.22044604925031e-16 
3 1    0.166666666666629                    0    0.166666666666629  1.2490009027033e-15 2.37206088105069e-14 -2.58473797920544e-16 
4 1    0.166666666666629    0.166666666666629                    0 1.33226762955019e-15 7.94503351997378e-16  2.4459601011273e-14 
5 1                    0    0.333333333333371                    0 -2.22044604925031e-16 7.14706072102445e-16 2.21628271290797e-14 
6 1                    0                  0.5    0.166666666666629 -4.71844785465692e-16 -4.75747913286639e-16 -1.38777878078145e-17 
7 1    0.166666666666629    0.333333333333371    0.166666666666629 1.38777878078145e-16  9.0205620750794e-17 -2.4980018054066e-16 
8 1    0.166666666666629                  0.5                    0 1.83186799063151e-15 1.22211268882566e-15 2.45088237899038e-14 
9 1                    0    0.666666666666629                    0 -5.55111512312578e-16 1.30798150088651e-15 2.33701946683595e-14 
10 1                    0    0.833333333333371    0.166666666666629 -5.96744875736022e-15 -2.49991000123018e-14 5.55111512312578e-16 
11 1    0.166666666666629    0.666666666666629    0.166666666666629 2.08166817117217e-15 6.34908792207511e-16 -1.01828268039839e-15 
12 1    0.166666666666629    0.833333333333371                    0 2.94209101525666e-15 -2.40502062709425e-14 2.32244778963775e-14 
13 1    0.333333333333371                    0                    0 -8.32667268468867e-16  2.3185880299037e-14 2.32561365998141e-14 
14 1    0.333333333333371    0.166666666666629    0.166666666666629 -1.3314002678122e-15 -1.72550775751068e-16 -1.3162214373974e-16 
15 1                  0.5                    0    0.166666666666629 1.98408997564847e-15 2.39116994434074e-14 -2.4980018054066e-16 
16 1                  0.5    0.166666666666629                    0 1.93985452701106e-15 9.15933995315754e-16  2.4615997174654e-14 
17 1    0.333333333333371    0.333333333333371                    0 -1.40512601554121e-16 4.46257614195034e-16  2.2921118128516e-14 
18 1    0.333333333333371                  0.5    0.166666666666629 -2.00360561475321e-16 3.39326240188652e-16 -8.92840489041813e-16 
19 1                  0.5    0.333333333333371    0.166666666666629 1.35986100698105e-15 5.71591385334358e-16 -2.8124204354274e-16 
20 1                  0.5                  0.5                    0 2.90739654573713e-15 2.73544208118093e-16 2.48216703267745e-14 
21 1    0.333333333333371    0.666666666666629                    0 -2.55611504185183e-15  2.0721271920543e-15 2.38162896522287e-14 
22 1    0.333333333333371    0.833333333333371    0.166666666666629 -3.07739944638286e-15 -2.47771096174854e-14 -6.01406945077709e-16 
23 1                  0.5    0.666666666666629    0.166666666666629 -1.33707082106225e-16 6.93889390390723e-17 -1.89084858881472e-16 
24 1                  0.5    0.833333333333371                    0 -5.68989300120393e-16 -2.45845011015433e-14 2.48065457064683e-14 
25 1    0.666666666666629                    0                    0 1.90125692967058e-15 2.43936815191859e-14 2.45185816094562e-14 
26 1    0.666666666666629    0.166666666666629    0.166666666666629 -1.04083408558608e-16 -1.04083408558608e-16 -1.70002900645727e-16 
27 1    0.833333333333371                    0    0.166666666666629 2.15105711021124e-16 2.24716079078036e-14 -2.4980018054066e-16 
28 1    0.833333333333371    0.166666666666629                    0 1.66533453693773e-16 8.74300631892311e-16 2.33459085396959e-14 
29 1    0.666666666666629    0.333333333333371                    0 9.57567358739198e-16 1.04343617080005e-15 2.35783614854768e-14 
30 1    0.666666666666629                  0.5    0.166666666666629 1.94289029309402e-16 -7.35522753814166e-16 -3.24393290007663e-16 
31 1    0.833333333333371    0.333333333333371    0.166666666666629 -1.2490009027033e-16 8.01659086335782e-16 -2.91433543964104e-16 
32 1    0.833333333333371                  0.5                    0 3.60822483003176e-16 6.66133814775094e-16 2.34950947586299e-14 
33 1    0.666666666666629    0.666666666666629                    0  1.6306400674182e-15 9.73179870022989e-16 2.46296039119187e-14 
34 1    0.666666666666629    0.833333333333371    0.166666666666629 7.04297731246584e-16 -2.34048891378791e-14 -3.36536354339501e-16 
35 1    0.833333333333371    0.666666666666629    0.166666666666629 2.65759636519647e-15 1.87350135405495e-15 8.60422844084496e-16 
36 1    0.833333333333371    0.833333333333371                    0 1.73472347597681e-15 -2.4161228573405e-14 2.41681674673089e-14 
37 1                    0                    0    0.333333333333371 -2.22044604925031e-16 2.31203944878189e-14 -1.31838984174237e-16 
38 1                    0    0.166666666666629                  0.5 -3.60822483003176e-16 6.38378239159465e-16 2.77555756156289e-16 
39 1    0.166666666666629                    0                  0.5 1.66533453693773e-15  2.4230617512444e-14 1.01763215909489e-15 
40 1    0.166666666666629    0.166666666666629    0.333333333333371 2.22044604925031e-16 -1.17961196366423e-16 1.21430643318376e-16 
41 1                    0    0.333333333333371    0.333333333333371 -2.77555756156289e-16 1.02695629777827e-15 8.11850586757146e-16 
42 1                    0                  0.5                  0.5 -4.82947015711943e-15 1.21560747579075e-15 -1.97324795392362e-17 
43 1    0.166666666666629    0.333333333333371                  0.5 -1.69309011255336e-15   6.956241138667e-16 4.71844785465692e-16 
44 1    0.166666666666629                  0.5    0.333333333333371 -1.60982338570648e-15 4.05493773215086e-17 7.04297731246584e-16 
45 1                    0    0.666666666666629    0.333333333333371 -5.52335954751015e-15 3.92047505570758e-16 1.09114106638941e-15 
46 1                    0    0.833333333333371                  0.5 -5.07927033766009e-15 -2.6624535909292e-14 1.02695629777827e-15 
47 1    0.166666666666629    0.666666666666629                  0.5 3.88578058618805e-16 1.01828268039839e-15 -1.38777878078145e-17 
48 1    0.166666666666629    0.833333333333371    0.333333333333371 -1.02695629777827e-15 -2.47666470665209e-14 -1.6826817716975e-16 
49 1    0.333333333333371                    0    0.333333333333371 -1.53523027623947e-16  2.4240429542105e-14 -4.05328982183706e-16 
50 1    0.333333333333371    0.166666666666629                  0.5 -1.38777878078145e-16 -3.64888241149997e-16 9.34528062573881e-16 
51 1                  0.5                    0                  0.5 2.81458883977237e-15 2.47179663889763e-14 4.82469966756049e-18 
52 1                  0.5    0.166666666666629    0.333333333333371 1.35934342799246e-15 -8.32667268468867e-17 3.57353036051222e-16 
53 1    0.333333333333371    0.333333333333371    0.333333333333371 -6.31439345255558e-16 -1.36663683841798e-16 -4.96564594998361e-17 
54 1    0.333333333333371                  0.5                  0.5 8.34401991944844e-16 1.33584571278994e-15 6.27210956782864e-17 
55 1                  0.5    0.333333333333371                  0.5 2.45723580372115e-15 9.95731275210687e-16 -2.02203705168547e-17 
56 1                  0.5                  0.5    0.333333333333371 2.39998992901391e-15 -3.47974687259223e-16 7.65013052905772e-16 
57 1    0.333333333333371    0.666666666666629    0.333333333333371 -1.37693675905659e-15  1.0544950329594e-15 6.63369099235256e-16 
58 1    0.333333333333371    0.833333333333371                  0.5 -1.77852524374522e-15 -2.54808110375371e-14 1.16589680618229e-15 
59 1                  0.5    0.666666666666629                  0.5  4.9591407369487e-16  2.4980018054066e-16 -6.95082012780457e-16 
60 1                  0.5    0.833333333333371    0.333333333333371 -6.07207426700507e-16 -2.51682897613181e-14 -1.03649727689614e-16 
61 1    0.666666666666629                    0    0.333333333333371 9.99200722162641e-16 2.47302178735254e-14 2.25514051876985e-16 
62 1    0.666666666666629    0.166666666666629                  0.5 2.15105711021124e-16 1.26634813746307e-16 -1.42247325030098e-16 
63 1    0.833333333333371                    0                  0.5  3.2612801348364e-16 2.32175390024736e-14 4.85722573273506e-16 
64 1    0.833333333333371    0.166666666666629    0.333333333333371 -1.35308431126191e-16 -1.6306400674182e-16 6.21031004399697e-16 
65 1    0.666666666666629    0.333333333333371    0.333333333333371 -1.68918698473242e-16 1.00397121172158e-15 8.27354677823688e-16 
66 1    0.666666666666629                  0.5                  0.5 3.33066907387547e-16 2.70616862252382e-16 -1.02175212735034e-15 
67 1    0.833333333333371    0.333333333333371                  0.5 1.79023462720806e-15  2.1315414711065e-15 1.81105130891979e-15 
68 1    0.833333333333371                  0.5    0.333333333333371 1.84574577843932e-15 1.40165656858926e-15 1.83186799063151e-15 
69 1    0.666666666666629    0.666666666666629    0.333333333333371 1.04603825601401e-15 -5.20417042793042e-18 1.16920362280837e-15 
70 1    0.666666666666629    0.833333333333371                  0.5 1.83186799063151e-15 -2.47839943012806e-14 1.87350135405495e-16 
71 1    0.833333333333371    0.666666666666629                  0.5 4.25354196309513e-15 7.32053306862213e-16   5.759281940243e-16 
72 1    0.833333333333371    0.833333333333371    0.333333333333371 3.39225175727265e-15 -2.61264534312522e-14 -8.43509290193722e-17 
73 1                    0                    0    0.666666666666629 -6.38378239159465e-16 2.24611995669477e-14 5.82867087928207e-16 
74 1                    0    0.166666666666629    0.833333333333371 -6.38378239159465e-15 3.11556336285435e-15 -2.54640059038636e-14 
75 1    0.166666666666629                    0    0.833333333333371 3.33066907387547e-15 1.84140896974938e-14 -2.50875709095766e-14 
76 1    0.166666666666629    0.166666666666629    0.666666666666629 1.72084568816899e-15 8.46545056276682e-16 1.06338549077378e-15 
77 1                    0    0.333333333333371    0.666666666666629 -5.4678483962789e-15 -1.95503335742586e-15 1.23512311489549e-15 
78 1                    0                  0.5    0.833333333333371 -4.49640324973188e-15 -1.93985452701106e-15 -2.64094301982709e-14 
79 1    0.166666666666629    0.333333333333371    0.833333333333371 -1.20736753927986e-15 -1.82666382020358e-15 -2.53738002831128e-14 
80 1    0.166666666666629                  0.5    0.666666666666629 -8.32667268468867e-17 -9.4542429440736e-16 6.71337985203024e-16 
81 1                    0    0.666666666666629    0.666666666666629 -5.4678483962789e-15 1.80411241501588e-15 1.52655665885959e-16 
82 1                    0    0.833333333333371    0.833333333333371 -5.21804821573824e-15 -2.39183672867682e-14 -2.65690247580608e-14 
83 1    0.166666666666629    0.666666666666629    0.833333333333371 1.01307850997046e-15 1.80584713849186e-15 -2.38385700068733e-14 
84 1    0.166666666666629    0.833333333333371    0.666666666666629 9.71445146547012e-16 -2.34916253116779e-14 2.05044314860459e-15 
85 1    0.333333333333371                    0    0.666666666666629 -2.68361721733612e-15 2.28908146777951e-14 1.25263297998113e-15 
86 1    0.333333333333371    0.166666666666629    0.833333333333371 -3.09691508548759e-15 9.44448512452123e-16 -2.53392684439191e-14 
87 1                  0.5                    0    0.833333333333371 -5.65953534037433e-16  2.0354648955917e-14 -2.56669685505528e-14 
88 1                  0.5    0.166666666666629    0.666666666666629 -9.64647374813482e-17 1.27675647831893e-15 3.79904441238921e-16 
89 1    0.333333333333371    0.333333333333371    0.666666666666629 -1.58423621443582e-15 -1.53658552895508e-15 1.75385964432118e-15 
90 1    0.333333333333371                  0.5    0.833333333333371 -1.71650887947905e-15 -1.04094250580333e-15 -2.51179827805148e-14 
91 1                  0.5    0.333333333333371    0.833333333333371 -7.52869988573934e-16 -1.60895602396849e-15 -2.57216665501547e-14 
92 1                  0.5                  0.5    0.666666666666629 3.20056481317721e-16 -2.00696664148792e-15 -8.32667268468867e-17 
93 1    0.333333333333371    0.666666666666629    0.666666666666629 -3.44342609981396e-15 2.36621703134099e-15 7.55472073787899e-16 
94 1    0.333333333333371    0.833333333333371    0.833333333333371 -4.80995451801469e-15 -2.28974825211559e-14 -2.55666798495979e-14 
95 1                  0.5    0.666666666666629    0.833333333333371  -3.216177324461e-15 1.13103970633688e-15 -2.40397979300866e-14 
96 1                  0.5    0.833333333333371    0.666666666666629 -2.93862156830471e-15 -2.3862856135537e-14 1.01307850997046e-15 
97 1    0.666666666666629                    0    0.666666666666629 1.79717352111197e-15 2.37934671964979e-14 2.48065457064683e-16 
98 1    0.666666666666629    0.166666666666629    0.833333333333371  1.1518563880486e-15 1.62023172656234e-15 -2.39218367337202e-14 
99 1    0.833333333333371                    0    0.833333333333371 2.09554595897998e-15 1.99493199737333e-14 -2.53408405370692e-14 
100 1    0.833333333333371    0.166666666666629    0.666666666666629  2.6853519408121e-15 3.03923552991137e-15  2.3037127760972e-15 
101 1    0.666666666666629    0.333333333333371    0.666666666666629 1.46063716677247e-15 -1.33158785237683e-15  9.5062846483529e-16 
102 1    0.666666666666629                  0.5    0.833333333333371 2.00880978518114e-15 -2.33320307518881e-15 -2.43763342844261e-14 
103 1    0.833333333333371    0.333333333333371    0.833333333333371 3.33674060604139e-15 -2.37418591730876e-15 -2.67160425726498e-14 
104 1    0.833333333333371                  0.5    0.666666666666629 3.51108031537706e-15 -9.60169443953163e-16 3.46944695195361e-16 
105 1    0.666666666666629    0.666666666666629    0.666666666666629 2.52922682797418e-15 8.06646416329215e-16 -4.54497550705923e-16 
106 1    0.666666666666629    0.833333333333371    0.833333333333371 2.92127433354494e-15 -2.28748226957509e-14 -2.47397588526432e-14 
107 1    0.833333333333371    0.666666666666629    0.833333333333371 3.42434414157822e-15 1.86656246015104e-15 -2.54692100742915e-14 
108 1    0.833333333333371    0.833333333333371    0.666666666666629 4.18415302405606e-15 -2.5132673719952e-14   1.346145417358e-15 
ITEM: TIMESTEP
100
ITEM: NUMBER OF ATOMS
108
ITEM: BOX BOUNDS pp pp pp
-1.5272340139547502e-01 1.2302723401395488e+01
-1.5272340139547502e-01 1.2302723401395477e+01
-1.5272340139547502e-01 1.2302723401395477e+01
ITEM: ATOMS id type xsu ysu zsu fx fy fz 
1 1   0.0336936799235446 0.000606155227501404  -0.0463678063088651   -0.773223982572704   0.0862237082766229     1.04083642633473 
2 1 -0.00869804897587301    0.178950331035026    0.142939169323313    0.104736843693081   -0.261456130361394    0.103964841702612 
3 1     0.12884912925017  0.00680353431744152    0.151529056858294  -0.0136760628125584  -0.0747334145588378    0.210787274432009 
4 1    0.166236181830413    0.171555078182109  -0.0252637783396494  -0.0365387779834698    0.316712248797718   0.0733397692575485 
5 1    0.028737634514755    0.341848645191362  -0.0280134054076484   -0.381655358151636     0.39549994524593    0.143344078826975 
6 1  -0.0285308410919356    0.524241078132377    0.151202466756445   0.0131762313597514    -0.48749208097158   0.0706359563104222 
7 1    0.123843394313553    0.348176994720802    0.166955452958064    0.189174021101851    0.500728999194722    0.166958567493232 
8 1    0.177533778528527    0.506313242015722 -0.00713953349787744   -0.861288054870862    0.668762640262199   -0.114655991493638 
9 1    0.027575123962265    0.698245289496981  -0.0391793903581288    0.153108493257078   -0.503520686263261    0.195439985056572 
10 1  -0.0257714032040326    0.824243419015033    0.150844106171121      0.9817328075304   -0.187780703843799    0.878244924765954 
11 1    0.142372854439941     0.66513306764864    0.148999323848329    0.275107831573864    0.238533431904697    0.185943013531048 
12 1    0.189693109418386    0.861168541191091  -0.0122460311310988    0.318666072362513   -0.818268472906198    0.270872577323049 
13 1    0.332721607414896   0.0313352985776874    0.057324955570607   0.0747316415024247   -0.389096789521874   -0.428330568932901 
14 1    0.285232837772242    0.210585271378363    0.145979675439548     0.31183235340422   0.0868276952428609    0.693756893116384 
15 1    0.488103508937684 -0.00980347956311789    0.225540022861765   0.0781603772675933    0.798127063879376   -0.902021561342626 
16 1    0.499621579501195    0.179889371247555   0.0278612523310358   -0.658169360578746   -0.851052275098715    0.100758316018474 
17 1    0.319147426130826    0.357677186770161  -0.0228197996869426    0.402619887229925   -0.522221037291319    0.149379818152529 
18 1    0.306808358596754    0.505476785670112    0.170732720833712  -0.0675238179894214    0.311332613031032    0.239886409077913 
19 1    0.457130258299003    0.356375677277583    0.156768300163208    0.406188304009582  -0.0178908626749102   0.0749787769799005 
20 1    0.517305213106397    0.491707912772767 -0.00461895212043828   -0.810402175391056   0.0159879309911701     0.12592135049567 
21 1      0.3579313059181     0.66917315787407   0.0114649020830484   -0.267165997189052   0.0419672939628193   -0.239301179230711 
22 1    0.340231479557588    0.824755767886018    0.165625146511616   -0.551299799383729    0.226791106894067    0.399804318408934 
23 1    0.496897743913451    0.654042907761891    0.177671828130201   -0.725516790367243    0.467542425230645    0.343856022182522 
24 1    0.485975850192062    0.881677756958879   0.0245358153158577       0.254880235656   -0.453730752673371   -0.420615132480319 
25 1    0.656774037822515   0.0185974247743843    0.012514377318098     1.01172600972862   -0.135428829536947    0.681557610623477 
26 1    0.652916003827613    0.137914098976808    0.197941620621805     0.27312496177452    0.319457719647837    0.195677815174479 
27 1    0.843454188476471 -0.00317882728342056    0.145180031362315   -0.325678360683474    0.334403492568733   0.0361895671547181 
28 1    0.821879129924469    0.176185745449175  0.00589698343355849    0.254116787953499    0.121382121707013    0.317181334240204 
29 1    0.645095642469983    0.322294029657996   0.0189402748242173     1.43807670980949    0.443414398262632    0.839974725227754 
30 1    0.634515848628212    0.496701270995345    0.192422959619989    0.824900988487724   -0.275835243793337    -0.54575916820409 
31 1    0.823255028514495    0.309840477569082     0.20914622197779   -0.416048843592722    0.274668743748543   -0.316472508867319 
32 1     0.80226250371004    0.509834169408009  -0.0022490350767157    0.416833359947353   -0.355367137243978    0.460610185529315 
33 1    0.636659617869896    0.666552983763154   0.0208934820722106    0.571930636837876    0.520052949801416   -0.348148645138282 
34 1    0.652660378031214    0.840710406511221    0.161713724539709    0.251123966440722  -0.0200698527460962  -0.0550140706995268 
35 1    0.807745769084022     0.66886601010151    0.156227234371158  -0.0402690890100718    0.044941110295029    0.212392108098465 
36 1    0.856756431733857    0.836773342015022 -0.00653507747790627    -0.93306908537448    0.209066507578576   -0.775880121392532 
37 1  -0.0257556826226732 -0.00659042461865056     0.32635117263942    0.641120683227823   -0.562534659227122    -0.06110076443759 
38 1    0.043554254493074    0.155558943694359    0.522680383914235   -0.826639675853936    0.565545457779239    0.392607416174726 
39 1    0.165361276409044  -0.0202316521692865    0.471098318563008   0.0435607471232777   -0.353404441623195    0.716252196928664 
40 1    0.136756833296772    0.160760696498073    0.343230342461766    0.667271040394578  -0.0460458777525697    -1.00373747775788 
41 1  0.00025421510531487    0.317092723373094    0.346500822177518   -0.200895968233012    0.374495944059517   0.0694526883909251 
42 1   0.0319544589310681    0.475477682220003    0.525170509218356  -0.0871139751425786   -0.262306967913412   -0.622805713401155 
43 1    0.196328545128949     0.31879937595977    0.515937474336965   -0.851737748837494   -0.111563351394562    0.274360818804375 
44 1    0.146753241808369    0.496085431738607    0.348658285029046   -0.484256683598386    0.265137814666471   -0.960102896582581 
45 1  -0.0145135443957543    0.657394307589698    0.340987267590094    0.469867337277468   -0.696431484994687   -0.405129256051122 
46 1  -0.0043315218904354    0.820318223111599    0.479902900687648    0.371267694531629   0.0984317423838397    0.684647830412704 
47 1    0.159917721118859     0.68771782766953    0.509586492241056     1.04641940751206   -0.180123291368008   -0.587916548382417 
48 1     0.12820488253135    0.829299876863843    0.307213305391883    0.623721618662661  -0.0619432188950781   -0.237135838135453 
49 1     0.29122562371515  0.00988216019766242    0.307909321627903    0.409153802004051  -0.0494179862078692   -0.269284745726299 
50 1    0.352153997977666    0.171655942094731    0.490823761270349    0.319362051266491   -0.321672323850956   -0.328135987822604 
51 1    0.506846430126529  0.00114669966023939    0.461441981052531   -0.652672600269592   0.0373913653647012    0.437476939197349 
52 1    0.462750255995047    0.195313475007197    0.300990506757898  -0.0144498751168302    -0.47621675792069    0.258383196141579 
53 1    0.305782063382253    0.342759729798331    0.329044699904557 -0.00352738715879607   -0.573289135399538   -0.511840508113119 
54 1     0.31038063003848    0.490717589488327    0.474735859921111    0.774593515625377    0.462626973456526   -0.266643433045427 
55 1    0.509439979545391    0.366036181491722    0.511554609537825   -0.404252833344841   -0.989549615486202   0.0955257101232299 
56 1    0.475563121943424    0.498980931480673    0.341531906875844   0.0659379835678352   0.0888829529747223   -0.471030084940255 
57 1    0.313530745975527    0.681963788158214    0.330301897980348   -0.220155687771869    -0.32966202003513   -0.134974994091766 
58 1    0.357893209544272     0.83335376682146    0.483169832286762   -0.753136317041055    0.389837737500044    0.703893931755076 
59 1    0.459289869792087    0.639977281803453    0.502010207534568    0.868061607519544    0.246466620571056   0.0100617225921195 
60 1    0.509769813513572       0.828690509382    0.339642202175924   -0.111640230282023    -1.35524609266407  -0.0438989797010057 
61 1    0.691022688142766  -0.0391916431736377    0.343656600260147   0.0556344552076424     1.11696480625795   -0.887238782438454 
62 1    0.654709887725403    0.143665268868858    0.484379420141181    0.285468562743564      1.0618435749102    -0.21019653248743 
63 1     0.83261200260506  -0.0606150021467329    0.515698492705042    0.545721628070418     1.49459231861243    0.326450552000352 
64 1    0.839056122623219    0.136244750240962    0.361942495286598     -0.4970819929473    0.690069584177509    0.146161297216942 
65 1    0.629407462512177    0.336307248118715    0.328899985916223    0.505159081307373   -0.431144153018744    0.297790788621559 
66 1    0.665110006270652    0.499366598262213    0.526732506118378    0.110157233139642   -0.362133817512612   -0.496468402652358 
67 1    0.843612800613414    0.322297580441727    0.497437443636954   -0.354037982625008   -0.386419943085761    0.409658149190836 
68 1    0.838077147724675    0.484426977963494    0.357191732521983  -0.0401605389409141   -0.627817135941157   -0.951698263498479 
69 1    0.654606223474502    0.664431160559502    0.334033076537594 0.000569047988548693   -0.162279520624339   0.0529621302026091 
70 1     0.67002526308147    0.825039164639406    0.490348859262099   -0.946620402491512     -1.3021234696217     1.00891496406456 
71 1    0.816146701724279    0.639338817890575    0.478796718037643    0.157756830345364    0.998467012169081    0.593764670755312 
72 1    0.838397367912307    0.807800177899935    0.333242883447951   -0.392276358422201   0.0769250575686729   -0.542602124057082 
73 1   0.0243091069716002   0.0254195953548333    0.685322404944827    0.230615722246306   -0.424922240139215   0.0152941885603531 
74 1  -0.0133911585942883    0.185383094326085    0.835687959573988    0.498029963379276  -0.0164970922703825   -0.166867343866341 
75 1    0.199335410164394  0.00894141932019465    0.835241053550476    0.854970305682567  -0.0549057731117248   -0.843298339878488 
76 1    0.236535341340868    0.149540573216655    0.669234223951207    -1.24883875497972    -0.42552267467414   -0.130523290273625 
77 1  -0.0165035388793058     0.34427035189276     0.68404042987072    0.398511788802622   -0.762081964292636   -0.187523321449709 
78 1 -0.00948868511034107    0.507381002561942    0.825460078914716    0.390229928016549    0.413159104382031    0.353850957428989 
79 1    0.183926363707315    0.352735316284679    0.794964212797026     -0.3195234693786   -0.308322576476909    0.320218748477871 
80 1    0.224483032045896    0.507941702857465     0.65016310849694   -0.552823575148806   -0.109226254970095     0.52000319233106 
81 1   0.0106113106130579    0.646230446930304    0.642584969777204   -0.138753530275024    0.568143115730527    0.692432363923997 
82 1  -0.0108959676794029    0.846456247513288    0.809395184315235    0.203062853828559   -0.412237593672789    -0.57605832830962 
83 1    0.181018797261004    0.655856939758678    0.789992353609819   -0.774430479937083     0.84173857469684    0.639964507297774 
84 1    0.170252046756787    0.852074533497557    0.666127620712246    0.190278368362775   0.0139438940988875   -0.114508284870862 
85 1    0.378824286155805  -0.0134109800345641    0.659171008122144   -0.654061272377728     -0.8489696531633  0.00871698660377359 
86 1    0.348867401403709    0.179117872929055     0.84734078102997    0.240108536164779    -0.28041100200346    0.380894718579109 
87 1    0.537686397977268   0.0102512590466404    0.851801088293996    -1.17674668736627   -0.108571021302386   -0.921986142578233 
88 1    0.498746132724705    0.149370598604378    0.675466178111719    0.442796487826075     1.19960454571867   0.0180486474097204 
89 1    0.357867049733045    0.315316624973889    0.666951163566523    0.633801322712533    0.947608976713713    0.123347177019587 
90 1     0.33510114018145    0.524169998859406    0.842276835737266    0.479450591397408   -0.326996045548384   -0.068695338973104 
91 1     0.52871966556927    0.307471491103684    0.849887082867781   -0.876461576280166     0.59583073134354   -0.929281377279198 
92 1     0.48629196700108    0.500004114102808     0.68460050253077    0.285324561677807  -0.0926861339093274   0.0469019711094726 
93 1    0.364240370818834    0.693285357059835    0.680783725176866    -0.44278591754254   -0.246240362958752   -0.331892919019163 
94 1    0.365204017042743    0.826433428360588    0.843073362255154   -0.278270773365235    0.578062744582493    0.223570131754581 
95 1    0.513856200034525    0.656169370034604     0.84677859830424    0.110523214577377     0.59051371617078   -0.300552527689728 
96 1    0.528323062465347    0.830058398563438    0.672685334853895    0.366563541130907    0.232605858054897   0.0598463601759688 
97 1    0.656156971926407    0.018358167201427     0.65357815220932    0.461268728665122    -1.03799443871328    0.523157747089967 
98 1    0.686406385782675    0.170276210872998    0.842336277539289    0.355912457630923   -0.201793142283527   -0.503029805490525 
99 1    0.858330360647074   0.0187139820395714    0.846682282281336    -1.28004950365935   -0.311589076278366   -0.300453954021362 
100 1     0.84011277301056    0.133332572128438    0.642417973513716   0.0560654669905922    0.488407546603516   -0.100761831197343 
101 1    0.702992281971092    0.341221998646802     0.68843716984793    -0.35406063357545   -0.404250139220688   -0.668129747566572 
102 1    0.661711047041649    0.498024757016879    0.837779088209118    0.284458034381929 -0.000323994349286455   -0.564768413525616 
103 1    0.835715189160283    0.340848710119872    0.850141124663423   -0.113697811874975    0.191355153158253    0.498313494434234 
104 1    0.853169308814813    0.508288260305676    0.648233007786644   -0.734651525723796  -0.0534736780359609    0.315583476759932 
105 1    0.663055764269757    0.660227477045737    0.657483069056866   -0.516508491692335   -0.157864672271162    0.563542327808502 
106 1    0.680435115161458    0.836861051058463     0.86306412641693  -0.0896232251474962   -0.041976508416467   -0.303346291212012 
107 1    0.835326262042827    0.668177311084378    0.843389934853576   -0.200840389090826   -0.148476115420857  -0.0681373483223434 
108 1     0.83415835225037    0.772658455756982    0.652175961317653    0.405584709526436    0.719524617276359    0.223610221775563 
ITEM: TIMESTEP
200
ITEM: NUMBER OF ATOMS
108
ITEM: BOX BOUNDS pp pp pp
-3.1351714535600461e-01 1.2463517145356018e+01
-3.1351714535600461e-01 1.2463517145356008e+01
-3.1351714535600461e-01 1.2463517145356008e+01
ITEM: ATOMS id type xsu ysu zsu fx fy fz 
1 1 -0.00908878338765362   0.0126305430949287  -0.0239066647430377    0.398337204154168   -0.549229444787332   -0.221625243668671 
2 1   0.0115223900795627    0.177888228466713    0.171641171485362     0.25802185474768    -0.25044814690985   -0.164750597851971 
3 1    0.136495929965122  -0.0225088498430068    0.142948216118839   -0.348990258128241    0.691651028567471    0.396510964631116 
4 1     0.15689876210115    0.192688963763089  -0.0158005691319545   -0.245021903688551   -0.271532673498624    0.252830075257189 