LAMMPS (17 Nov 2016)
units metal
dimension 3
boundary p p p
atom_style atomic
read_data structure.inp
  orthogonal box = (0 0 0) to (12.15 12.15 12.15)
  1 by 1 by 1 MPI processor grid
  reading atoms ...
  108 atoms
include potential.inp
pair_style eam/alloy
pair_coeff * * Al_lammps_2.eam Al
fix 1 all npt temp 1000 1000 1.0 iso 0.0 0.0 1.0
variable  dumptime equal 100
dump 1 all custom ${dumptime} dump.out id type xsu ysu zsu fx fy fz
dump 1 all custom 100 dump.out id type xsu ysu zsu fx fy fz
dump_modify 1 sort id format line "%d %d %20.15g %20.15g %20.15g %20.15g %20.15g %20.15g"
thermo_style custom step temp pe etotal pxx pyy pzz vol
thermo_modify format  float %20.15g
thermo 100
velocity all create 2000 3874 dist gaussian
run 10000
Neighbor list info ...
  1 neighbor list requests
  update every 1 steps, delay 10 steps, check yes
  max neighbors/atom: 2000, page size: 100000
  master list distance cutoff = 8.5
  ghost atom cutoff = 8.5
  binsize = 4.25 -> bins = 3 3 3
Memory usage per processor = 3.93753 Mbytes
Step Temp PotEng TotEng Pxx Pyy Pzz Volume 
       0                 2000    -362.821576160678    -335.159905130678       13993.76219138     12224.8009514221     12199.3872243208          1793.613375 
     100     780.270454249525    -348.873556728933    -338.081764418993     7037.05371140668      7225.0136643873     4487.26362607095     1932.31503739753 
     200       667.7581790293    -345.584535717963    -336.348882180013    -35260.7683587788    -34457.1739899034    -33854.6903255339     2085.88413553215 
     300     834.936935634023    -349.359496883711    -337.811621461559    -16529.6237407127    -11355.2934400588    -12116.7620711503     1979.90399183954 
     400     863.584526817978    -349.149775215354    -337.205679671636     25552.7416108482     34079.8311307164     30334.6800494201     1861.55607360513 
     500     876.883592825451    -349.768973865638    -337.640941127467      4244.9136885962     9176.79109292952     2111.46406320804     1924.01553930611 
     600     793.084379574623    -348.055640962366    -337.086621358953    -16837.8489588577    -18193.8718650191    -18931.5170641172     2004.98814726558 
     700     821.091774834801    -348.473761056688    -337.117375776229    -7674.17380170415       -5621.48307886    -2037.82924607892     1964.21026255017 
     800     906.165285043678    -349.165102241353    -336.632079234511     13242.4104511561     15055.9133564146     15429.3862099741     1903.14053439101 
     900     854.450868768276    -348.267402178506    -336.449632756923      9094.2780545748     9005.63621267308     4013.70787047376     1927.86873913122 
    1000     820.999317211581    -347.529211267023    -336.174104752742    -7043.87284564718    -11252.1057890631     -5846.5657614851      1988.1387910004 
    1100     893.003123633923    -348.281930960925    -335.930951643563    -12748.3051944657    -12567.1908400855    -8187.35275509252      1986.4425126714 
    1200     922.572935708857    -348.478747844989    -335.718793320609     7372.03094126176      6122.1223141155      11917.590167401     1929.48415018068 
    1300     940.902822508477    -348.522094457036    -335.508622283322     8311.83250826774     2481.01854186444      10106.764186789     1930.20354046859 
    1400     901.023128303284    -347.784560128153     -335.32265744538    -4459.95243679961    -4376.77696612128    -8477.45269070389     1972.13902406838 
    1500       893.0784276469     -347.48938343927    -335.137362604491    -7043.16958137831    -10341.7786951613    -6627.80229574866     1976.49767341032 
    1600     918.162402783436    -347.694900817209    -334.995947648254      9831.2326931305     4977.40971500103      6384.4741920079     1938.42895453633 
    1700     920.731979609805    -347.592854307696    -334.858361744313     2357.18012705395     6875.85180441353      3069.7617303126      1943.6981416265 
    1800     863.415990318113    -346.609865001794    -334.668100458683     1722.18821911674     2873.88472252294    -8984.03121972769      1967.2983801267 
    1900     914.347747970365     -347.16510051402    -334.518907208331    -174.601715072845    -673.854107446679    -696.047736391587     1969.45565942807 
    2000     939.714167992926    -347.361487791775     -334.36445570315    -1287.76122039662     1459.81658249675    -561.858695399249     1964.36863807521 
    2100     962.421883414019    -347.516387546539    -334.205288781003    -4823.17790087858     3575.64778042948      24.834490612976     1960.35171296311 
    2200      927.11855422809    -346.868268800718    -334.045444574285     570.515701686827     5580.40129980761     2872.17163938008      1962.6304004887 
    2300     972.941128556996    -347.343405994582    -333.886817279732    -5672.01268927977    -1560.89765405788    -3493.42491011894      1980.3781779953 
    2400     880.509957858584    -345.887889441211     -333.70970104475    -4459.36954982403     3645.14707795752    -5870.87229533658     1984.89242817195 
    2500     927.376003020085    -346.347945580687    -333.521560622358     6773.63231595775     2814.12214505048     -3086.4978054843      1975.6465859952 
    2600     1049.50127714487    -347.827533530599    -333.312053993626    -3212.28879978197    -6945.77774169915    -981.405474079465     1974.18126799535 
    2700     909.488052131506    -345.688066874137    -333.109087222248      11668.811094661     8260.26660976798      5878.2391559424      1965.3768103084 
    2800     1080.34434317936    -347.875518235168    -332.933453325094    -6498.43989486501    -6664.60751270983    -9652.17141775493     1989.83324048423 
    2900      978.01446533407    -346.260707282571    -332.733950081245    -3755.50928770491    -5929.75741247848    -6746.28088259391      1990.9396302967 
    3000      1025.6166688163    -346.753931396889    -332.568795949048     474.640105600293     8417.39053652408     3114.17871853506     1961.11821455706 
    3100     995.564033126852    -346.113516996012    -332.344034609185     10978.6116733245     2520.80772851107     5824.55257797707     1953.19556805578 
    3200     901.220099164481    -344.666123331766     -332.20149637741     800.517404686471    -2489.13046377412     6775.83823179389     1982.06468952936 
    3300      963.59885672151    -345.337904633787    -332.010527344029    -3713.65433995016    -4940.35891713629    -4761.48796291374     2005.35908393413 
    3400     1054.04240885249     -346.48089746011    -331.902610277437    -10389.7095212463     -5482.0935040277    -3833.61527521539     1991.20576410778 
    3500     1121.21248970229     -347.20531005777    -331.698004535334       7402.937212405     4638.87969178475     1878.86782938467     1955.40075195963 
    3600     1013.34989608117    -345.599894736804    -331.584419004963     6407.37823012117     2298.64286355385     10688.3387550088     1961.08379005356 
    3700     1015.57684418453    -345.546066947752    -331.499790662993    -4698.32624855457    -8393.79816180524    -8925.92625731914     2011.22371769554 
    3800     1023.59668676171    -345.561617850781    -331.404420442481    -12797.1020397375    -9757.89965998338    -12320.0730413036     2010.13123933672 
    3900     1080.70821839507    -346.240505080112    -331.293407471781     15212.7298828783      11173.725434778     12584.1803317097     1938.92859157453 
    4000     1094.25308318128    -346.318371947085    -331.183937541823     9757.86244513265     8129.30791448892     13839.3737358098     1941.43746469289 
    4100     921.022034417707     -343.92278001294    -331.184275749218     3642.02250547471    -1693.20306744043    -6118.91873020146     2007.09422351704 
    4200     1051.22367416506    -345.539071074429    -330.999769347578    -13531.4523507537    -18910.3649826655    -18145.5701224014      2033.3405778108 
    4300     1078.91358390664    -346.007751304541    -331.085474990629     3510.95711588321     3351.89356037379      5055.1031539568     1966.55261253808 
    4400     1079.95315831586    -345.799637799537    -330.862983302966     17241.4830226358     9727.35938673129     12444.8891162766     1940.93956618292 
    4500     967.596096953142    -344.344132285321    -330.961469823406    -34.4190209532162    -1049.91115214048    -3190.51804401923     1987.99825281924 
    4600     1046.55600837366    -345.283595836824    -330.808851827773    -10328.3727868933    -10440.5005060834      -8499.477698146     2018.10002234495 
    4700     993.144367459386    -344.557459681986    -330.821443293006     7587.35736744024     3976.06972141776    -7824.32218258397      1989.8722128194 
    4800     1104.02970680226    -346.007923241774    -330.738269963319     805.235732925297     2427.27229679485     2638.09034113588      1969.6450752467 
    4900     1021.04759068436    -344.837886186584    -330.715944906841     7559.55816870601     3445.52409271147     1798.48223922615     1970.67900063446 
    5000     1062.29286451724    -345.410712412879    -330.718314534983    -7827.67974634997     2615.61042640936    -3188.30589514462     1994.16490111856 
    5100     932.710730540137    -343.610221027454    -330.710052330277     1005.09215354383    -1264.48335119428    -2020.72334591082     1996.93695441386 
    5200     1143.83147064936    -346.558997760209    -330.738852832777    -524.723727688114    -2395.12109979244    -2303.13424616875     1979.62330981227 
    5300     1070.10141537005    -345.557292442882     -330.75689578253     4466.56735311403     4108.47569895168     8087.81105666907     1969.95703420608 
    5400     933.384236379957    -343.770642014073    -330.861158168408     994.410421176385     2220.72813969135    -290.501877840755     1996.35901176527 
    5500     969.497418080293    -344.299451474558    -330.890492152873    -7533.37998166731    -1518.58164292891    -5422.49208849774     2008.37261461929 
    5600     1073.11198221293    -345.864299734957    -331.022264419795     1684.87811845734     3719.32159258944     865.869295495112     1971.51412193134 
    5700      1103.0901443296    -346.338208622963    -331.081550278522     7074.93755446389     5769.79919422091     13145.6906497973     1952.31843700798 
    5800     1066.98848558691    -346.102662045173    -331.345319804622    -1839.87303955606     1426.11288065094    -9101.75401504671     1990.42338278037 
    5900     869.927652899615    -343.469210305554     -331.43738402835     5986.30462860299    -13148.2304866739     487.576332142802     2010.32653804926 
    6000     980.686492454559    -345.242211274791     -331.67849770587    -5837.01885895561       153.3206637171     1018.81045186958     1986.40023854807 
    6100     1047.17599413264    -346.399001407297    -331.915682477192     6881.50562781266     1450.64488130763     6545.75620918503     1953.36293844408 
    6200     890.457706344577    -344.566355560386     -332.25058149087     13984.2462978714     12502.0865036213     15629.5093819078     1949.68302747664 
    6300     1046.78924232021    -347.056729069892    -332.578759240489    -8235.02586996716    -11294.1429895241    -10245.8928075493     1997.21396470371 
    6400     1006.52971216517    -346.840387849132    -332.919240959216    -5012.83552618508    -9631.28750311467    -8021.71576090425     1993.01766510849 
    6500     1158.57116094502    -349.250494053291    -333.226486893838    -465.581345218918     1249.21962749674    -2923.05583596748     1949.35669833852 
    6600     985.422499654826    -347.142320401867    -333.513103896361      11016.426967214     10881.5813927093     10856.0614998618     1932.78978517922 
    6700     907.880406882174    -346.431707008169     -333.87496243329    -3392.68779744273    -506.930544692369     -4931.3620722573     1973.21171772709 
    6800      886.12410533413    -346.339716759335    -334.083880012582     -4676.5892169849    -1815.89476819434    -3015.60103512647     1985.86842933013 
    6900     875.219313554582    -346.392934312812    -334.287919947488     8602.79695913388    -448.231780641827    -1131.23331853318     1966.38241493244 
    7000     997.567524882981    -348.254698432701    -334.457506080938     937.513369107201     1305.18199027388      569.91237572608     1951.31013852381 
    7100     938.680909674985    -347.591932893866    -334.609191631081     4766.50036252051      2297.0664840417     3757.47747817487     1948.98975921192 
    7200       899.5390060104    -347.195140303163    -334.753764271707    -5018.83302410771    -5215.36683476364     1212.43378231173     1972.96293459774 
    7300     930.273595226701    -347.681651329541    -334.815190250013    -8028.78820924518    -8855.06668613924    -9086.07849964552     1980.46112198481 
    7400     952.063760081588    -348.110956484442    -334.943119218961     4432.05923071993     6822.51026617982     5904.29163249286     1937.66464995282 
    7500     973.168980121441    -348.401475802298    -334.941735709938     6466.89638829619     7269.81232188486     13426.1131605393     1930.45274661401 
    7600     811.687546416716    -346.267439902654    -335.041122958591     730.423763784036    -1284.96904926601    -5696.65269125749     1977.03302230352 
    7700     907.753540413977    -347.534384660196    -334.979394754571    -12707.6490282573    -9402.37231729684    -11578.4579947471     1991.88836349327 
    7800     875.036703500743    -347.093933295172    -334.991444579465     11699.6418434327     7166.59857210304     2349.92492756164     1940.53947669767 
    7900      889.32797773445    -347.187466125416    -334.887317146483     12333.2779227745     16460.7112330825     8307.96165321524     1928.13243439865 
    8000     901.724411252219    -347.387893337633    -334.916291325743    -3426.22891393346    -3820.30484060891    -1778.39778091673     1972.22420024075 
    8100     935.507773454519    -347.713691667047    -334.774837529394    -12814.5404365955    -9940.07715828743    -9178.63126905233     1989.90612373259 
    8200     942.637301547036    -347.777853831958    -334.740392363958     9369.49679495914     3887.21356071371    -1649.63202452056     1944.46262328861 
    8300     927.940960957974    -347.421158581543    -334.586959782902     3918.59854317326     8200.75330926585     11438.2183260526     1937.74471807528 
    8400     928.322954594078    -347.317499939599    -334.478017849809      -7428.849376198    -6401.36953051697      467.00717596684     1977.16716834411 
    8500     896.596061461788    -346.706537455863    -334.305864806388    -3579.66751556648    -6482.47398723683    -2690.52822507224     1983.83223288331 
    8600       1024.307014974    -348.336139790088    -334.169117949122    -4601.33473800241    -4616.00019054103     1303.73210750384     1957.91205011151 
    8700     930.066292925358    -346.830910904856     -333.96731698936     12978.3927723629     12424.4273852751      10550.323459971     1939.75336683728 
    8800     881.345170934818    -346.063545723184    -333.873805632045    -4075.32800880568      3897.6435569871    -2793.41009863022     1976.08650044745 
    8900     935.540462211824    -346.561285897024    -333.621979646545    -9744.04184974202    -5923.94345772771    -8410.55750348264     1998.97195646032 
    9000     869.891785166745    -345.528028981893    -333.496698785402     7804.32358892527     3943.96241384589     4543.05480395808     1964.39169128193 
    9100     1082.80720918449    -348.204979472519    -333.228851067832     3803.06234379887     3412.05334136483     3939.39672993406     1942.66741638639 
    9200     927.634352324923    -345.916483733859     -333.08652558879     8646.89095077103     6433.31397906152     5499.39671752895     1956.73709985268 
    9300     965.119573235211    -346.243286016794    -332.894875947071    -14322.7593704053    -7029.37124908364    -7022.50636398351     1997.44163864556 
    9400     919.557398346815    -345.444739142054    -332.726492018918    -3656.34118393896    -1121.55497786904      717.66791621564     1993.66621490212 
    9500     1118.45934723798    -348.058644637354    -332.589417375492    -1374.16291923344     -4645.3075502147     3775.18118516119     1966.38666791654 
    9600     967.736783200873    -345.805764786775    -332.421156516509      3222.3530201524      6828.0506401695     11323.9593531464     1957.10682252107 
    9700     977.964992653727    -345.830148479364    -332.304075526542    -2868.80449341868     5656.98458024477     -10369.308718993      1985.8733577295 
    9800     1010.35178807014    -346.168164889861    -332.194155496777    -193.722326972309    -3584.04712512738    -5155.05278351451     1985.95073566381 
    9900     1091.74979321195    -347.206751675235    -332.106939861785     2013.47482798156    -2600.34622569023     1743.42703011951     1967.39297742053 
   10000      1006.6408650294    -345.966834807942    -332.044150581043     10991.7725100617     4260.82851503249    -2195.35043333197     1966.54022704009 
Loop time of 2.64156 on 1 procs for 10000 steps with 108 atoms

Performance: 327.079 ns/day, 0.073 hours/ns, 3785.636 timesteps/s
100.0% CPU use with 1 MPI tasks x no OpenMP threads

MPI task timing breakdown:
Section |  min time  |  avg time  |  max time  |%varavg| %total
---------------------------------------------------------------
Pair    | 2.4172     | 2.4172     | 2.4172     |   0.0 | 91.51
Neigh   | 0.04539    | 0.04539    | 0.04539    |   0.0 |  1.72
Comm    | 0.065397   | 0.065397   | 0.065397   |   0.0 |  2.48
Output  | 0.034317   | 0.034317   | 0.034317   |   0.0 |  1.30
Modify  | 0.062164   | 0.062164   | 0.062164   |   0.0 |  2.35
Other   |            | 0.01711    |            |       |  0.65

Nlocal:    108 ave 108 max 108 min
Histogram: 1 0 0 0 0 0 0 0 0 0
Nghost:    1359 ave 1359 max 1359 min
Histogram: 1 0 0 0 0 0 0 0 0 0
Neighs:    7665 ave 7665 max 7665 min
Histogram: 1 0 0 0 0 0 0 0 0 0

Total # of neighbors = 7665
Ave neighs/atom = 70.9722
Neighbor list builds = 156
Dangerous builds = 0
Total wall time: 0:00:02
