<?xml version="1.0" encoding="ISO-8859-1"?>
<modeling>
 <generator>
  <i name="program" type="string">vasp </i>
  <i name="version" type="string">5.4.1  </i>
  <i name="subversion" type="string">24Jun15 (build Apr 15 2016 18:00:36) complex                          serial </i>
  <i name="platform" type="string">IFC91_ompi </i>
  <i name="date" type="string">2017 01 05 </i>
  <i name="time" type="string">10:26:31 </i>
 </generator>
 <incar>
  <i type="string" name="SYSTEM">ToDo</i>
  <i type="string" name="PREC">accurate</i>
  <i type="string" name="ALGO">Fast</i>
  <i name="ENCUT">    250.00000000</i>
  <i type="logical" name="LREAL"> F  </i>
  <v type="int" name="KPOINT_BSE">    -1     0     0     0</v>
 </incar>
 <kpoints>
  <generation param="Monkhorst-Pack">
   <v type="int" name="divisions">       4        4        4 </v>
   <v name="usershift">      0.00000000       0.00000000       0.00000000 </v>
   <v name="genvec1">      0.25000000       0.00000000       0.00000000 </v>
   <v name="genvec2">      0.00000000       0.25000000       0.00000000 </v>
   <v name="genvec3">      0.00000000       0.00000000       0.25000000 </v>
   <v name="shift">      0.50000000       0.50000000       0.50000000 </v>
  </generation>
  <varray name="kpointlist" >
   <v>       0.12500000       0.12500000       0.12500000 </v>
   <v>       0.37500000       0.12500000       0.12500000 </v>
   <v>       0.37500000       0.37500000       0.12500000 </v>
   <v>       0.37500000       0.37500000       0.37500000 </v>
  </varray>
  <varray name="weights" >
   <v>       0.12500000 </v>
   <v>       0.37500000 </v>
   <v>       0.37500000 </v>
   <v>       0.12500000 </v>
  </varray>
 </kpoints>
 <parameters>
  <separator name="general" >
   <i type="string" name="SYSTEM">ToDo</i>
   <i type="logical" name="LCOMPAT"> F  </i>
  </separator>
  <separator name="electronic" >
   <i type="string" name="PREC">accura</i>
   <i name="ENMAX">    250.00000000</i>
   <i name="ENAUG">    511.36800000</i>
   <i name="EDIFF">      0.00010000</i>
   <i type="int" name="IALGO">    68</i>
   <i type="int" name="IWAVPR">     0</i>
   <i type="int" name="NBANDS">    12</i>
   <i name="NELECT">     16.00000000</i>
   <i type="int" name="TURBO">     0</i>
   <i type="int" name="IRESTART">     0</i>
   <i type="int" name="NREBOOT">     0</i>
   <i type="int" name="NMIN">     0</i>
   <i name="EREF">      0.00000000</i>
   <separator name="electronic smearing" >
    <i type="int" name="ISMEAR">     1</i>
    <i name="SIGMA">      0.20000000</i>
    <i name="KSPACING">      0.50000000</i>
    <i type="logical" name="KGAMMA"> T  </i>
   </separator>
   <separator name="electronic projectors" >
    <i type="logical" name="LREAL"> F  </i>
    <v name="ROPT">      0.00000000</v>
    <i type="int" name="LMAXPAW">  -100</i>
    <i type="int" name="LMAXMIX">     2</i>
    <i type="logical" name="NLSPLINE"> F  </i>
   </separator>
   <separator name="electronic startup" >
    <i type="int" name="ISTART">     0</i>
    <i type="int" name="ICHARG">     2</i>
    <i type="int" name="INIWAV">     1</i>
   </separator>
   <separator name="electronic spin" >
    <i type="int" name="ISPIN">     1</i>
    <i type="logical" name="LNONCOLLINEAR"> F  </i>
    <v name="MAGMOM">      1.00000000      1.00000000</v>
    <i name="NUPDOWN">     -1.00000000</i>
    <i type="logical" name="LSORBIT"> F  </i>
    <v name="SAXIS">      0.00000000      0.00000000      1.00000000</v>
    <i type="logical" name="LSPIRAL"> F  </i>
    <v name="QSPIRAL">      0.00000000      0.00000000      0.00000000</v>
    <i type="logical" name="LZEROZ"> F  </i>
   </separator>
   <separator name="electronic exchange-correlation" >
    <i type="logical" name="LASPH"> F  </i>
    <i type="logical" name="LMETAGGA"> F  </i>
   </separator>
   <separator name="electronic convergence" >
    <i type="int" name="NELM">    60</i>
    <i type="int" name="NELMDL">    -5</i>
    <i type="int" name="NELMIN">     2</i>
    <i name="ENINI">    250.00000000</i>
    <separator name="electronic convergence detail" >
     <i type="logical" name="LDIAG"> T  </i>
     <i type="logical" name="LSUBROT"> F  </i>
     <i name="WEIMIN">      0.00000000</i>
     <i name="EBREAK">      0.00000208</i>
     <i name="DEPER">      0.30000000</i>
     <i type="int" name="NRMM">     4</i>
     <i name="TIME">      0.40000000</i>
    </separator>
   </separator>
   <separator name="electronic mixer" >
    <i name="AMIX">      0.40000000</i>
    <i name="BMIX">      1.00000000</i>
    <i name="AMIN">      0.10000000</i>
    <i name="AMIX_MAG">      1.60000000</i>
    <i name="BMIX_MAG">      1.00000000</i>
    <separator name="electronic mixer details" >
     <i type="int" name="IMIX">     4</i>
     <i type="logical" name="MIXFIRST"> F  </i>
     <i type="int" name="MAXMIX">   -45</i>
     <i name="WC">    100.00000000</i>
     <i type="int" name="INIMIX">     1</i>
     <i type="int" name="MIXPRE">     1</i>
     <i type="int" name="MREMOVE">     5</i>
    </separator>
   </separator>
   <separator name="electronic dipolcorrection" >
    <i type="logical" name="LDIPOL"> F  </i>
    <i type="logical" name="LMONO"> F  </i>
    <i type="int" name="IDIPOL">     0</i>
    <i name="EPSILON">      1.00000000</i>
    <v name="DIPOL">   -100.00000000   -100.00000000   -100.00000000</v>
    <i name="EFIELD">      0.00000000</i>
   </separator>
  </separator>
  <separator name="grids" >
   <i type="int" name="NGX">    14</i>
   <i type="int" name="NGY">    14</i>
   <i type="int" name="NGZ">    14</i>
   <i type="int" name="NGXF">    28</i>
   <i type="int" name="NGYF">    28</i>
   <i type="int" name="NGZF">    28</i>
   <i type="logical" name="ADDGRID"> F  </i>
  </separator>
  <separator name="ionic" >
   <i type="int" name="NSW">     0</i>
   <i type="int" name="IBRION">    -1</i>
   <i type="int" name="ISIF">     2</i>
   <i name="PSTRESS">      0.00000000</i>
   <i name="EDIFFG">      0.00100000</i>
   <i type="int" name="NFREE">     0</i>
   <i name="POTIM">      0.50000000</i>
   <i name="SMASS">     -3.00000000</i>
   <i name="SCALEE">      1.00000000</i>
  </separator>
  <separator name="ionic md" >
   <i name="TEBEG">      0.00010000</i>
   <i name="TEEND">      0.00010000</i>
   <i type="int" name="NBLOCK">     1</i>
   <i type="int" name="KBLOCK">     1</i>
   <i type="int" name="NPACO">   256</i>
   <i name="APACO">     16.00000000</i>
  </separator>
  <separator name="symmetry" >
   <i type="int" name="ISYM">     2</i>
   <i name="SYMPREC">      0.00001000</i>
  </separator>
  <separator name="dos" >
   <i type="logical" name="LORBIT"> F  </i>
   <v name="RWIGS">     -1.00000000</v>
   <i type="int" name="NEDOS">   301</i>
   <i name="EMIN">     10.00000000</i>
   <i name="EMAX">    -10.00000000</i>
   <i name="EFERMI">      0.00000000</i>
  </separator>
  <separator name="writing" >
   <i type="int" name="NWRITE">     2</i>
   <i type="logical" name="LWAVE"> T  </i>
   <i type="logical" name="LCHARG"> T  </i>
   <i type="logical" name="LPARD"> F  </i>
   <i type="logical" name="LVTOT"> F  </i>
   <i type="logical" name="LVHAR"> F  </i>
   <i type="logical" name="LELF"> F  </i>
   <i type="logical" name="LOPTICS"> F  </i>
   <v name="STM">      0.00000000      0.00000000      0.00000000      0.00000000      0.00000000      0.00000000      0.00000000</v>
  </separator>
  <separator name="performance" >
   <i type="int" name="NPAR">     1</i>
   <i type="int" name="NSIM">     4</i>
   <i type="int" name="NBLK">    -1</i>
   <i type="logical" name="LPLANE"> T  </i>
   <i type="logical" name="LSCALAPACK"> F  </i>
   <i type="logical" name="LSCAAWARE"> F  </i>
   <i type="logical" name="LSCALU"> F  </i>
   <i type="logical" name="LASYNC"> F  </i>
   <i type="logical" name="LORBITALREAL"> F  </i>
  </separator>
  <separator name="miscellaneous" >
   <i type="int" name="IDIOT">     3</i>
   <i type="logical" name="LMUSIC"> F  </i>
   <v name="POMASS">     55.84700000</v>
   <v name="DARWINR">      0.00000000</v>
   <v name="DARWINV">      1.00000000</v>
   <i type="logical" name="LCORR"> T  </i>
  </separator>
  <i type="logical" name="GGA_COMPAT"> T  </i>
  <i type="logical" name="LBERRY"> F  </i>
  <i type="int" name="ICORELEVEL">     0</i>
  <i type="logical" name="LDAU"> F  </i>
  <i type="int" name="I_CONSTRAINED_M">     0</i>
  <separator name="electronic exchange-correlation" >
   <i type="string" name="GGA">--</i>
   <i type="int" name="VOSKOWN">     0</i>
   <i type="logical" name="LHFCALC"> F  </i>
   <i type="string" name="PRECFOCK"></i>
   <i type="logical" name="LSYMGRAD"> F  </i>
   <i type="logical" name="LHFONE"> F  </i>
   <i type="logical" name="LRHFCALC"> F  </i>
   <i type="logical" name="LTHOMAS"> F  </i>
   <i type="logical" name="LMODELHF"> F  </i>
   <i name="ENCUT4O">     -1.00000000</i>
   <i type="int" name="EXXOEP">     0</i>
   <i type="int" name="FOURORBIT">     0</i>
   <i name="AEXX">      0.00000000</i>
   <i name="HFALPHA">      0.00000000</i>
   <i name="MCALPHA">      0.00000000</i>
   <i name="ALDAX">      1.00000000</i>
   <i name="AGGAX">      1.00000000</i>
   <i name="ALDAC">      1.00000000</i>
   <i name="AGGAC">      1.00000000</i>
   <i type="int" name="NKREDX">     1</i>
   <i type="int" name="NKREDY">     1</i>
   <i type="int" name="NKREDZ">     1</i>
   <i type="logical" name="SHIFTRED"> F  </i>
   <i type="logical" name="ODDONLY"> F  </i>
   <i type="logical" name="EVENONLY"> F  </i>
   <i type="int" name="LMAXFOCK">     0</i>
   <i type="int" name="NMAXFOCKAE">     0</i>
   <i type="logical" name="LFOCKAEDFT"> F  </i>
   <i name="HFSCREEN">      0.00000000</i>
   <i name="HFSCREENC">      0.00000000</i>
   <i type="int" name="NBANDSGWLOW">     0</i>
  </separator>
  <separator name="vdW DFT" >
   <i type="logical" name="LUSE_VDW"> F  </i>
   <i name="Zab_VDW">     -0.84910000</i>
   <i name="PARAM1">      0.12340000</i>
   <i name="PARAM2">      1.00000000</i>
   <i name="PARAM3">      0.00000000</i>
  </separator>
  <separator name="model GW" >
   <i type="int" name="MODEL_GW">     0</i>
   <i name="MODEL_EPS0">      6.58560000</i>
   <i name="MODEL_ALPHA">      1.00000000</i>
  </separator>
  <separator name="linear response parameters" >
   <i type="logical" name="LEPSILON"> F  </i>
   <i type="logical" name="LRPA"> F  </i>
   <i type="logical" name="LNABLA"> F  </i>
   <i type="logical" name="LVEL"> F  </i>
   <i type="int" name="KINTER">     0</i>
   <i name="CSHIFT">      0.10000000</i>
   <i name="OMEGAMAX">     -1.00000000</i>
   <i name="DEG_THRESHOLD">      0.00200000</i>
  </separator>
  <separator name="orbital magnetization" >
   <i type="logical" name="NUCIND"> F  </i>
   <v name="MAGPOS">      0.00000000      0.00000000      0.00000000</v>
   <i type="logical" name="LNICSALL"> T  </i>
   <i type="logical" name="ORBITALMAG"> F  </i>
   <i type="logical" name="LMAGBLOCH"> F  </i>
   <i type="logical" name="LCHIMAG"> F  </i>
   <i type="logical" name="LGAUGE"> T  </i>
   <i type="int" name="MAGATOM">     0</i>
   <v name="MAGDIPOL">      0.00000000      0.00000000      0.00000000</v>
   <v name="AVECCONST">      0.00000000      0.00000000      0.00000000</v>
  </separator>
  <separator name="response functions" >
   <i type="logical" name="LADDER"> F  </i>
   <i type="logical" name="LFXC"> F  </i>
   <i type="logical" name="LHARTREE"> T  </i>
   <i type="int" name="IBSE">     0</i>
   <v type="int" name="KPOINT">    -1     0     0     0</v>
   <i type="logical" name="LTCTE"> F  </i>
   <i type="logical" name="LTETE"> F  </i>
   <i type="logical" name="LTRIPLET"> F  </i>
   <i type="logical" name="LFXCEPS"> F  </i>
   <i type="logical" name="LFXHEG"> F  </i>
   <i type="int" name="NATURALO">     0</i>
   <i type="logical" name="L2ORDER"> F  </i>
   <i type="logical" name="LUSEW"> F  </i>
   <i name="ENCUTGW">     -2.00000000</i>
   <i name="ENCUTGWSOFT">     -2.00000000</i>
   <i name="ENCUTLF">     -1.00000000</i>
   <i type="int" name="LMAXMP2">    -1</i>
   <i name="SCISSOR">      0.00000000</i>
   <i type="int" name="NOMEGA">     0</i>
   <i type="int" name="NOMEGAR">     0</i>
   <i type="int" name="NBANDSGW">    -1</i>
   <i type="int" name="NBANDSO">    -1</i>
   <i type="int" name="NBANDSV">    -1</i>
   <i type="int" name="NELM">     1</i>
   <i type="int" name="NELMHF">     1</i>
   <i type="int" name="DIM">     3</i>
   <i type="int" name="ANTIRES">     0</i>
   <i name="OMEGAMAX">    -30.00000000</i>
   <i name="OMEGAMIN">    -30.00000000</i>
   <i name="OMEGATL">   -200.00000000</i>
   <i type="int" name="OMEGAGRID">     0</i>
   <i name="CSHIFT">     -0.10000000</i>
   <i type="logical" name="SELFENERGY"> F  </i>
   <i type="logical" name="LSPECTRAL"> F  </i>
   <i type="logical" name="LSPECTRALGW"> F  </i>
   <i type="logical" name="LSINGLES"> F  </i>
   <i type="logical" name="LFERMIGW"> F  </i>
   <i type="logical" name="ODDONLYGW"> F  </i>
   <i type="logical" name="EVENONLYGW"> F  </i>
   <i type="int" name="NKREDLFX">     1</i>
   <i type="int" name="NKREDLFY">     1</i>
   <i type="int" name="NKREDLFZ">     1</i>
   <i type="int" name="MAXMEM">  1800</i>
   <i type="int" name="TELESCOPE">     0</i>
   <i type="int" name="TAUPAR">     1</i>
   <i type="int" name="OMEGAPAR">    -1</i>
   <i name="LAMBDA">      1.00000000</i>
  </separator>
  <separator name="External order field" >
   <i name="OFIELD_KAPPA">      0.00000000</i>
   <v name="OFIELD_K">      0.00000000      0.00000000      0.00000000</v>
   <i name="OFIELD_Q6_NEAR">      0.00000000</i>
   <i name="OFIELD_Q6_FAR">      0.00000000</i>
   <i name="OFIELD_A">      0.00000000</i>
  </separator>
 </parameters>
 <atominfo>
  <atoms>       2 </atoms>
  <types>       1 </types>
  <array name="atoms" >
   <dimension dim="1">ion</dimension>
   <field type="string">element</field>
   <field type="int">atomtype</field>
   <set>
    <rc><c>Fe</c><c>   1</c></rc>
    <rc><c>Fe</c><c>   1</c></rc>
   </set>
  </array>
  <array name="atomtypes" >
   <dimension dim="1">type</dimension>
   <field type="int">atomspertype</field>
   <field type="string">element</field>
   <field>mass</field>
   <field>valence</field>
   <field type="string">pseudopotential</field>
   <set>
    <rc><c>   2</c><c>Fe</c><c>     55.84700000</c><c>      8.00000000</c><c> PAW Fe 03Mar1998                       </c></rc>
   </set>
  </array>
 </atominfo>
 <structure name="initialpos" >
  <crystal>
   <varray name="basis" >
    <v>       2.80000000       0.00000000       0.00000000 </v>
    <v>       0.00000000       2.80000000       0.00000000 </v>
    <v>       0.00000000       0.00000000       2.80000000 </v>
   </varray>
   <i name="volume">     21.95200000 </i>
   <varray name="rec_basis" >
    <v>       0.35714286       0.00000000       0.00000000 </v>
    <v>       0.00000000       0.35714286       0.00000000 </v>
    <v>       0.00000000       0.00000000       0.35714286 </v>
   </varray>
  </crystal>
  <varray name="positions" >
   <v>       0.00000000       0.00000000       0.00000000 </v>
   <v>       0.50000000       0.50000000       0.50000000 </v>
  </varray>
 </structure>
 <calculation>
  <scstep>
   <time name="dav">    0.04    0.02</time>
   <time name="total">    0.05    0.03</time>
   <energy>
    <i name="alphaZ">    122.02745190 </i>
    <i name="ewald">  -1197.80999809 </i>
    <i name="hartreedc">   -216.86274298 </i>
    <i name="XCdc">      9.07895932 </i>
    <i name="pawpsdc">    958.19798724 </i>
    <i name="pawaedc">   -976.76933593 </i>
    <i name="eentropy">     -0.00457027 </i>
    <i name="bandstr">    156.85794188 </i>
    <i name="atom">   1194.59723597 </i>
    <i name="e_fr_energy">     49.31292902 </i>
    <i name="e_wo_entrp">     49.31749929 </i>
    <i name="e_0_energy">     49.31445244 </i>
   </energy>
  </scstep>
  <scstep>
   <time name="dav">    0.04    0.02</time>
   <time name="total">    0.04    0.02</time>
   <energy>
    <i name="e_fr_energy">    ********** </i>
    <i name="e_wo_entrp">    ********* </i>
    <i name="e_0_energy">    ********* </i>
   </energy>
  </scstep>
  <scstep>
   <time name="dav">    0.03    0.02</time>
   <time name="total">    0.03    0.02</time>
   <energy>
    <i name="e_fr_energy">    -20.89838550 </i>
    <i name="e_wo_entrp">    -20.88640688 </i>
    <i name="e_0_energy">    -20.89439262 </i>
   </energy>
  </scstep>
  <scstep>
   <time name="dav">    0.06    0.03</time>
   <time name="total">    0.06    0.03</time>
   <energy>
    <i name="e_fr_energy">    -20.92056153 </i>
    <i name="e_wo_entrp">    -20.91247298 </i>
    <i name="e_0_energy">    -20.91786535 </i>
   </energy>
  </scstep>
  <scstep>
   <time name="dav">    0.04    0.02</time>
   <time name="total">    0.06    0.03</time>
   <energy>
    <i name="e_fr_energy">    -20.92073722 </i>
    <i name="e_wo_entrp">    -20.91267888 </i>
    <i name="e_0_energy">    -20.91805111 </i>
   </energy>
  </scstep>
  <scstep>
   <time name="diag">    0.01    0.00</time>
   <time name="diis">    0.03    0.02</time>
   <time name="orth">    0.00    0.00</time>
   <time name="total">    0.06    0.03</time>
   <energy>
    <i name="e_fr_energy">    -17.95357529 </i>
    <i name="e_wo_entrp">    -17.93445351 </i>
    <i name="e_0_energy">    -17.94720136 </i>
   </energy>
  </scstep>
  <scstep>
   <time name="diag">    0.02    0.01</time>
   <time name="diis">    0.03    0.02</time>
   <time name="orth">    0.00    0.00</time>
   <time name="total">    0.06    0.03</time>
   <energy>
    <i name="e_fr_energy">    -17.76756585 </i>
    <i name="e_wo_entrp">    -17.75364441 </i>
    <i name="e_0_energy">    -17.76292537 </i>
   </energy>
  </scstep>
  <scstep>
   <time name="diag">    0.01    0.00</time>
   <time name="diis">    0.03    0.02</time>
   <time name="orth">    0.00    0.00</time>
   <time name="total">    0.06    0.03</time>
   <energy>
    <i name="e_fr_energy">    -17.73952400 </i>
    <i name="e_wo_entrp">    -17.72497084 </i>
    <i name="e_0_energy">    -17.73467295 </i>
   </energy>
  </scstep>
  <scstep>
   <time name="diag">    0.01    0.00</time>
   <time name="diis">    0.03    0.02</time>
   <time name="orth">    0.00    0.00</time>
   <time name="total">    0.06    0.03</time>
   <energy>
    <i name="e_fr_energy">    -17.73795020 </i>
    <i name="e_wo_entrp">    -17.72360695 </i>
    <i name="e_0_energy">    -17.73316911 </i>
   </energy>
  </scstep>
  <scstep>
   <time name="diag">    0.01    0.00</time>
   <time name="diis">    0.02    0.01</time>
   <time name="orth">    0.00    0.00</time>
   <time name="total">    0.04    0.02</time>
   <energy>
    <i name="alphaZ">    122.02745190 </i>
    <i name="ewald">  -1197.80999809 </i>
    <i name="hartreedc">   -183.02825753 </i>
    <i name="XCdc">      7.26888332 </i>
    <i name="pawpsdc">   1047.22513364 </i>
    <i name="pawaedc">  -1067.05569416 </i>
    <i name="eentropy">     -0.01445097 </i>
    <i name="bandstr">     59.05170914 </i>
    <i name="atom">   1194.59723597 </i>
    <i name="e_fr_energy">    -17.73798679 </i>
    <i name="e_wo_entrp">    -17.72353582 </i>
    <i name="e_0_energy">    -17.73316980 </i>
   </energy>
  </scstep>
  <structure>
   <crystal>
    <varray name="basis" >
     <v>       2.80000000       0.00000000       0.00000000 </v>
     <v>       0.00000000       2.80000000       0.00000000 </v>
     <v>       0.00000000       0.00000000       2.80000000 </v>
    </varray>
    <i name="volume">     21.95200000 </i>
    <varray name="rec_basis" >
     <v>       0.35714286       0.00000000       0.00000000 </v>
     <v>       0.00000000       0.35714286       0.00000000 </v>
     <v>       0.00000000       0.00000000       0.35714286 </v>
    </varray>
   </crystal>
   <varray name="positions" >
    <v>       0.00000000       0.00000000       0.00000000 </v>
    <v>       0.50000000       0.50000000       0.50000000 </v>
   </varray>
  </structure>
  <varray name="forces" >
   <v>      -0.00000000       0.00000000       0.00000000 </v>
   <v>       0.00000000      -0.00000000       0.00000000 </v>
  </varray>
  <varray name="stress" >
   <v>    -393.03199722       0.00000000       0.00000000 </v>
   <v>       0.00000000    -393.03199722       0.00000000 </v>
   <v>      -0.00000000       0.00000000    -393.03199722 </v>
  </varray>
  <energy>
   <i name="e_fr_energy">    -17.73798679 </i>
   <i name="e_wo_entrp">    -17.73316980 </i>
   <i name="e_0_energy">     -0.01445097 </i>
  </energy>
  <time name="totalsc">    0.68    0.34</time>
  <eigenvalues>
   <array>
    <dimension dim="1">band</dimension>
    <dimension dim="2">kpoint</dimension>
    <dimension dim="3">spin</dimension>
    <field>eigene</field>
    <field>occ</field>
    <set>
     <set comment="spin 1">
      <set comment="kpoint 1">
       <r>   -1.5390    1.0000 </r>
       <r>    2.0815    1.0000 </r>
       <r>    2.0815    1.0000 </r>
       <r>    4.1203    1.0000 </r>
       <r>    4.1203    1.0000 </r>
       <r>    4.9939    1.0000 </r>
       <r>    5.5857    1.0089 </r>
       <r>    5.8637    0.9086 </r>
       <r>    5.8637    0.9086 </r>
       <r>    6.7396   -0.0000 </r>
       <r>    6.7396   -0.0000 </r>
       <r>   15.1392    0.0000 </r>
      </set>
      <set comment="kpoint 2">
       <r>    0.5911    1.0000 </r>
       <r>    2.4321    1.0000 </r>
       <r>    2.9383    1.0000 </r>
       <r>    3.8038    1.0000 </r>
       <r>    3.9859    1.0000 </r>
       <r>    4.4072    1.0000 </r>
       <r>    5.2873    1.0000 </r>
       <r>    5.5136    1.0024 </r>
       <r>    5.9682    0.5445 </r>
       <r>    6.4435   -0.0025 </r>
       <r>    6.5823   -0.0001 </r>
       <r>    9.3866   -0.0000 </r>
      </set>
      <set comment="kpoint 3">
       <r>    1.4922    1.0000 </r>
       <r>    2.0086    1.0000 </r>
       <r>    3.2382    1.0000 </r>
       <r>    3.4223    1.0000 </r>
       <r>    4.2212    1.0000 </r>
       <r>    4.4584    1.0000 </r>
       <r>    5.7213    1.0349 </r>
       <r>    5.8991    0.8094 </r>
       <r>    6.1342    0.0160 </r>
       <r>    6.7812   -0.0000 </r>
       <r>    7.5212   -0.0000 </r>
       <r>    9.8099   -0.0000 </r>
      </set>
      <set comment="kpoint 4">
       <r>    2.6935    1.0000 </r>
       <r>    3.0617    1.0000 </r>
       <r>    3.0732    1.0000 </r>
       <r>    3.0732    1.0000 </r>
       <r>    3.4410    1.0000 </r>
       <r>    3.4410    1.0000 </r>
       <r>    6.1463    0.0009 </r>
       <r>    6.1463    0.0009 </r>
       <r>    6.1719   -0.0212 </r>
       <r>    6.1719   -0.0212 </r>
       <r>   10.1393   -0.0000 </r>
       <r>   13.5864    0.0000 </r>
      </set>
     </set>
    </set>
   </array>
  </eigenvalues>
  <separator name="orbital magnetization" >
   <v name="MAGDIPOLOUT">      0.00000000      0.00000000      0.00000000</v>
  </separator>
  <dos>
   <i name="efermi">      5.97876516 </i>
   <total>
    <array>
     <dimension dim="1">gridpoints</dimension>
     <dimension dim="2">spin</dimension>
     <field>energy</field>
     <field>total</field>
     <field>integrated</field>
     <set>
      <set comment="spin 1">
       <r>    -3.5390     0.0000     0.0000 </r>
       <r>    -3.4701     0.0000     0.0000 </r>
       <r>    -3.4012     0.0000     0.0000 </r>
       <r>    -3.3322     0.0000     0.0000 </r>
       <r>    -3.2633     0.0000     0.0000 </r>
       <r>    -3.1944    -0.0000    -0.0000 </r>
       <r>    -3.1254    -0.0000    -0.0000 </r>
       <r>    -3.0565    -0.0000    -0.0000 </r>
       <r>    -2.9876    -0.0000    -0.0000 </r>
       <r>    -2.9187    -0.0000    -0.0000 </r>
       <r>    -2.8497    -0.0000    -0.0000 </r>
       <r>    -2.7808    -0.0000    -0.0000 </r>
       <r>    -2.7119    -0.0000    -0.0000 </r>
       <r>    -2.6430    -0.0000    -0.0000 </r>
       <r>    -2.5740    -0.0000    -0.0000 </r>
       <r>    -2.5051    -0.0000    -0.0000 </r>
       <r>    -2.4362    -0.0000    -0.0000 </r>
       <r>    -2.3672    -0.0000    -0.0000 </r>
       <r>    -2.2983    -0.0000    -0.0000 </r>
       <r>    -2.2294    -0.0000    -0.0000 </r>
       <r>    -2.1605    -0.0002    -0.0000 </r>
       <r>    -2.0915    -0.0010    -0.0001 </r>
       <r>    -2.0226    -0.0048    -0.0004 </r>
       <r>    -1.9537    -0.0167    -0.0016 </r>
       <r>    -1.8848    -0.0401    -0.0043 </r>
       <r>    -1.8158    -0.0545    -0.0081 </r>
       <r>    -1.7469     0.0130    -0.0072 </r>
       <r>    -1.6780     0.2564     0.0105 </r>
       <r>    -1.6090     0.6561     0.0557 </r>
       <r>    -1.5401     0.9883     0.1238 </r>
       <r>    -1.4712     0.9945     0.1924 </r>
       <r>    -1.4023     0.6694     0.2385 </r>
       <r>    -1.3333     0.2675     0.2570 </r>
       <r>    -1.2644     0.0177     0.2582 </r>
       <r>    -1.1955    -0.0541     0.2544 </r>
       <r>    -1.1266    -0.0409     0.2516 </r>
       <r>    -1.0576    -0.0173     0.2504 </r>
       <r>    -0.9887    -0.0050     0.2501 </r>
       <r>    -0.9198    -0.0011     0.2500 </r>
       <r>    -0.8508    -0.0002     0.2500 </r>
       <r>    -0.7819    -0.0000     0.2500 </r>
       <r>    -0.7130    -0.0000     0.2500 </r>
       <r>    -0.6441    -0.0000     0.2500 </r>
       <r>    -0.5751    -0.0000     0.2500 </r>
       <r>    -0.5062    -0.0000     0.2500 </r>
       <r>    -0.4373    -0.0000     0.2500 </r>
       <r>    -0.3684    -0.0000     0.2500 </r>
       <r>    -0.2994    -0.0000     0.2500 </r>
       <r>    -0.2305    -0.0000     0.2500 </r>
       <r>    -0.1616    -0.0000     0.2500 </r>
       <r>    -0.0926    -0.0001     0.2500 </r>
       <r>    -0.0237    -0.0006     0.2500 </r>
       <r>     0.0452    -0.0036     0.2497 </r>
       <r>     0.1141    -0.0165     0.2486 </r>
       <r>     0.1831    -0.0555     0.2447 </r>
       <r>     0.2520    -0.1277     0.2359 </r>
       <r>     0.3209    -0.1596     0.2249 </r>
       <r>     0.3898     0.0830     0.2307 </r>
       <r>     0.4588     0.8702     0.2906 </r>
       <r>     0.5277     2.0872     0.4345 </r>
       <r>     0.5966     3.0170     0.6425 </r>
       <r>     0.6656     2.9247     0.8441 </r>
       <r>     0.7345     1.8881     0.9742 </r>
       <r>     0.8034     0.7048     1.0228 </r>
       <r>     0.8723     0.0121     1.0236 </r>
       <r>     0.9413    -0.1680     1.0120 </r>
       <r>     1.0102    -0.1301     1.0031 </r>
       <r>     1.0791    -0.0981     0.9963 </r>
       <r>     1.1481    -0.1352     0.9870 </r>
       <r>     1.2170    -0.1655     0.9756 </r>
       <r>     1.2859     0.0487     0.9789 </r>
       <r>     1.3548     0.7929     1.0336 </r>
       <r>     1.4238     1.9956     1.1711 </r>
       <r>     1.4927     2.9703     1.3759 </r>
       <r>     1.5616     2.9366     1.5783 </r>
       <r>     1.6305     1.8773     1.7077 </r>
       <r>     1.6995     0.5689     1.7469 </r>
       <r>     1.7684    -0.1659     1.7355 </r>
       <r>     1.8373     0.1088     1.7430 </r>
       <r>     1.9063     1.4573     1.8434 </r>
       <r>     1.9752     3.3780     2.0762 </r>
       <r>     2.0441     4.7145     2.4012 </r>
       <r>     2.1130     4.4788     2.7099 </r>
       <r>     2.1820     2.9447     2.9129 </r>
       <r>     2.2509     1.5082     3.0168 </r>
       <r>     2.3198     1.3071     3.1069 </r>
       <r>     2.3887     2.1497     3.2551 </r>
       <r>     2.4577     2.8778     3.4535 </r>
       <r>     2.5266     2.6835     3.6384 </r>
       <r>     2.5955     1.8371     3.7651 </r>
       <r>     2.6645     1.0938     3.8405 </r>
       <r>     2.7334     0.8756     3.9008 </r>
       <r>     2.8023     1.2893     3.9897 </r>
       <r>     2.8712     2.3583     4.1522 </r>
       <r>     2.9402     3.7880     4.4133 </r>
       <r>     3.0091     4.9049     4.7514 </r>
       <r>     3.0780     5.2273     5.1117 </r>
       <r>     3.1469     4.9284     5.4514 </r>
       <r>     3.2159     4.6026     5.7687 </r>
       <r>     3.2848     4.7371     6.0952 </r>
       <r>     3.3537     5.3215     6.4620 </r>
       <r>     3.4227     5.6824     6.8537 </r>
       <r>     3.4916     4.9578     7.1954 </r>
       <r>     3.5605     3.1770     7.4144 </r>
       <r>     3.6294     1.5423     7.5207 </r>
       <r>     3.6984     1.2145     7.6044 </r>
       <r>     3.7673     2.1308     7.7513 </r>
       <r>     3.8362     3.3278     7.9806 </r>
       <r>     3.9051     4.1062     8.2637 </r>
       <r>     3.9741     4.4933     8.5734 </r>
       <r>     4.0430     4.7666     8.9019 </r>
       <r>     4.1119     4.9953     9.2463 </r>
       <r>     4.1809     5.0925     9.5973 </r>
       <r>     4.2498     5.1368     9.9513 </r>
       <r>     4.3187     5.4677    10.3282 </r>
       <r>     4.3876     6.1184    10.7499 </r>
       <r>     4.4566     6.2896    11.1835 </r>
       <r>     4.5255     5.1145    11.5360 </r>
       <r>     4.5944     2.8956    11.7356 </r>
       <r>     4.6633     0.8590    11.7948 </r>
       <r>     4.7323    -0.1727    11.7829 </r>
       <r>     4.8012    -0.2775    11.7638 </r>
       <r>     4.8701     0.0944    11.7703 </r>
       <r>     4.9391     0.5523    11.8083 </r>
       <r>     5.0080     0.8288    11.8655 </r>
       <r>     5.0769     0.9263    11.9293 </r>
       <r>     5.1458     1.2001    12.0120 </r>
       <r>     5.2148     1.9151    12.1440 </r>
       <r>     5.2837     2.7699    12.3350 </r>
       <r>     5.3526     3.2866    12.5615 </r>
       <r>     5.4215     3.5240    12.8044 </r>
       <r>     5.4905     3.8479    13.0696 </r>
       <r>     5.5594     4.2342    13.3615 </r>
       <r>     5.6283     4.4500    13.6682 </r>
       <r>     5.6973     4.6849    13.9911 </r>
       <r>     5.7662     5.4140    14.3643 </r>
       <r>     5.8351     6.6869    14.8252 </r>
       <r>     5.9040     7.8908    15.3691 </r>
       <r>     5.9730     8.4386    15.9507 </r>
       <r>     6.0419     8.4772    16.5351 </r>
       <r>     6.1108     8.3275    17.1090 </r>
       <r>     6.1798     7.5668    17.6306 </r>
       <r>     6.2487     5.7598    18.0276 </r>
       <r>     6.3176     3.7425    18.2856 </r>
       <r>     6.3865     2.9109    18.4862 </r>
       <r>     6.4555     3.4910    18.7268 </r>
       <r>     6.5244     4.5179    19.0382 </r>
       <r>     6.5933     5.2463    19.3999 </r>
       <r>     6.6622     5.7208    19.7942 </r>
       <r>     6.7312     5.9963    20.2075 </r>
       <r>     6.8001     5.5748    20.5917 </r>
       <r>     6.8690     4.0784    20.8729 </r>
       <r>     6.9380     2.0445    21.0138 </r>
       <r>     7.0069     0.4646    21.0458 </r>
       <r>     7.0758    -0.2341    21.0297 </r>
       <r>     7.1447    -0.3491    21.0056 </r>
       <r>     7.2137    -0.2985    20.9850 </r>
       <r>     7.2826    -0.1514    20.9746 </r>
       <r>     7.3515     0.3557    20.9991 </r>
       <r>     7.4204     1.4034    21.0958 </r>
       <r>     7.4894     2.6037    21.2753 </r>
       <r>     7.5583     3.1210    21.4904 </r>
       <r>     7.6272     2.5268    21.6646 </r>
       <r>     7.6962     1.3127    21.7551 </r>
       <r>     7.7651     0.3123    21.7766 </r>
       <r>     7.8340    -0.1166    21.7686 </r>
       <r>     7.9029    -0.1536    21.7580 </r>
       <r>     7.9719    -0.0803    21.7524 </r>
       <r>     8.0408    -0.0273    21.7506 </r>
       <r>     8.1097    -0.0067    21.7501 </r>
       <r>     8.1786    -0.0012    21.7500 </r>
       <r>     8.2476    -0.0002    21.7500 </r>
       <r>     8.3165    -0.0000    21.7500 </r>
       <r>     8.3854    -0.0000    21.7500 </r>
       <r>     8.4544    -0.0000    21.7500 </r>
       <r>     8.5233    -0.0000    21.7500 </r>
       <r>     8.5922    -0.0000    21.7500 </r>
       <r>     8.6611    -0.0000    21.7500 </r>
       <r>     8.7301    -0.0002    21.7500 </r>
       <r>     8.7990    -0.0012    21.7499 </r>
       <r>     8.8679    -0.0068    21.7494 </r>
       <r>     8.9368    -0.0277    21.7475 </r>
       <r>     9.0058    -0.0812    21.7419 </r>
       <r>     9.0747    -0.1543    21.7313 </r>
       <r>     9.1436    -0.1143    21.7234 </r>
       <r>     9.2126     0.3208    21.7455 </r>
       <r>     9.2815     1.3233    21.8367 </r>
       <r>     9.3504     2.5173    22.0102 </r>
       <r>     9.4193     3.0501    22.2205 </r>
       <r>     9.4883     2.4449    22.3890 </r>
       <r>     9.5572     1.2526    22.4753 </r>
       <r>     9.6261     0.5815    22.5154 </r>
       <r>     9.6950     1.0439    22.5874 </r>
       <r>     9.7640     2.2020    22.7391 </r>
       <r>     9.8329     2.9679    22.9437 </r>
       <r>     9.9018     2.6630    23.1273 </r>
       <r>     9.9708     1.6858    23.2435 </r>
       <r>    10.0397     0.9454    23.3086 </r>
       <r>    10.1086     0.8022    23.3639 </r>
       <r>    10.1775     0.8775    23.4244 </r>
       <r>    10.2465     0.7408    23.4755 </r>
       <r>    10.3154     0.3955    23.5027 </r>
       <r>    10.3843     0.0909    23.5090 </r>
       <r>    10.4533    -0.0416    23.5061 </r>
       <r>    10.5222    -0.0511    23.5026 </r>
       <r>    10.5911    -0.0264    23.5008 </r>
       <r>    10.6600    -0.0089    23.5002 </r>
       <r>    10.7290    -0.0022    23.5000 </r>
       <r>    10.7979    -0.0004    23.5000 </r>
       <r>    10.8668    -0.0001    23.5000 </r>
       <r>    10.9357    -0.0000    23.5000 </r>
       <r>    11.0047    -0.0000    23.5000 </r>
       <r>    11.0736    -0.0000    23.5000 </r>
       <r>    11.1425    -0.0000    23.5000 </r>
       <r>    11.2115    -0.0000    23.5000 </r>
       <r>    11.2804    -0.0000    23.5000 </r>
       <r>    11.3493    -0.0000    23.5000 </r>
       <r>    11.4182    -0.0000    23.5000 </r>
       <r>    11.4872     0.0000    23.5000 </r>
       <r>    11.5561     0.0000    23.5000 </r>
       <r>    11.6250     0.0000    23.5000 </r>
       <r>    11.6939     0.0000    23.5000 </r>
       <r>    11.7629     0.0000    23.5000 </r>
       <r>    11.8318     0.0000    23.5000 </r>
       <r>    11.9007     0.0000    23.5000 </r>
       <r>    11.9697    -0.0000    23.5000 </r>
       <r>    12.0386    -0.0000    23.5000 </r>
       <r>    12.1075    -0.0000    23.5000 </r>
       <r>    12.1764    -0.0000    23.5000 </r>
       <r>    12.2454    -0.0000    23.5000 </r>
       <r>    12.3143    -0.0000    23.5000 </r>
       <r>    12.3832    -0.0000    23.5000 </r>
       <r>    12.4521    -0.0000    23.5000 </r>
       <r>    12.5211    -0.0000    23.5000 </r>
       <r>    12.5900    -0.0000    23.5000 </r>
       <r>    12.6589    -0.0000    23.5000 </r>
       <r>    12.7279    -0.0000    23.5000 </r>
       <r>    12.7968    -0.0000    23.5000 </r>
       <r>    12.8657    -0.0000    23.5000 </r>
       <r>    12.9346    -0.0001    23.5000 </r>
       <r>    13.0036    -0.0005    23.5000 </r>
       <r>    13.0725    -0.0025    23.4998 </r>
       <r>    13.1414    -0.0101    23.4991 </r>
       <r>    13.2103    -0.0287    23.4971 </r>
       <r>    13.2793    -0.0526    23.4935 </r>
       <r>    13.3482    -0.0335    23.4912 </r>
       <r>    13.4171     0.1243    23.4997 </r>
       <r>    13.4861     0.4711    23.5322 </r>
       <r>    13.5550     0.8700    23.5922 </r>
       <r>    13.6239     1.0402    23.6639 </r>
       <r>    13.6928     0.8401    23.7218 </r>
       <r>    13.7618     0.4351    23.7518 </r>
       <r>    13.8307     0.1027    23.7589 </r>
       <r>    13.8996    -0.0392    23.7562 </r>
       <r>    13.9685    -0.0511    23.7526 </r>
       <r>    14.0375    -0.0266    23.7508 </r>
       <r>    14.1064    -0.0090    23.7502 </r>
       <r>    14.1753    -0.0022    23.7500 </r>
       <r>    14.2443    -0.0004    23.7500 </r>
       <r>    14.3132    -0.0001    23.7500 </r>
       <r>    14.3821    -0.0000    23.7500 </r>
       <r>    14.4510    -0.0000    23.7500 </r>
       <r>    14.5200    -0.0002    23.7500 </r>
       <r>    14.5889    -0.0011    23.7499 </r>
       <r>    14.6578    -0.0050    23.7496 </r>
       <r>    14.7267    -0.0173    23.7484 </r>
       <r>    14.7957    -0.0409    23.7456 </r>
       <r>    14.8646    -0.0541    23.7418 </r>
       <r>    14.9335     0.0177    23.7430 </r>
       <r>    15.0025     0.2675    23.7615 </r>
       <r>    15.0714     0.6694    23.8076 </r>
       <r>    15.1403     0.9945    23.8762 </r>
       <r>    15.2092     0.9883    23.9443 </r>
       <r>    15.2782     0.6561    23.9895 </r>
       <r>    15.3471     0.2564    24.0072 </r>
       <r>    15.4160     0.0130    24.0081 </r>
       <r>    15.4850    -0.0545    24.0043 </r>
       <r>    15.5539    -0.0401    24.0016 </r>
       <r>    15.6228    -0.0167    24.0004 </r>
       <r>    15.6917    -0.0048    24.0001 </r>
       <r>    15.7607    -0.0010    24.0000 </r>
       <r>    15.8296    -0.0002    24.0000 </r>
       <r>    15.8985    -0.0000    24.0000 </r>
       <r>    15.9674    -0.0000    24.0000 </r>
       <r>    16.0364    -0.0000    24.0000 </r>
       <r>    16.1053    -0.0000    24.0000 </r>
       <r>    16.1742    -0.0000    24.0000 </r>
       <r>    16.2432    -0.0000    24.0000 </r>
       <r>    16.3121    -0.0000    24.0000 </r>
       <r>    16.3810    -0.0000    24.0000 </r>
       <r>    16.4499     0.0000    24.0000 </r>
       <r>    16.5189     0.0000    24.0000 </r>
       <r>    16.5878     0.0000    24.0000 </r>
       <r>    16.6567     0.0000    24.0000 </r>
       <r>    16.7256     0.0000    24.0000 </r>
       <r>    16.7946     0.0000    24.0000 </r>
       <r>    16.8635     0.0000    24.0000 </r>
       <r>    16.9324     0.0000    24.0000 </r>
       <r>    17.0014     0.0000    24.0000 </r>
       <r>    17.0703     0.0000    24.0000 </r>
       <r>    17.1392     0.0000    24.0000 </r>
      </set>
     </set>
    </array>
   </total>
  </dos>
 </calculation>
 <structure name="finalpos" >
  <crystal>
   <varray name="basis" >
    <v>       2.80000000       0.00000000       0.00000000 </v>
    <v>       0.00000000       2.80000000       0.00000000 </v>
    <v>       0.00000000       0.00000000       2.80000000 </v>
   </varray>
   <i name="volume">     21.95200000 </i>
   <varray name="rec_basis" >
    <v>       0.35714286       0.00000000       0.00000000 </v>
    <v>       0.00000000       0.35714286       0.00000000 </v>
    <v>       0.00000000       0.00000000       0.35714286 </v>
   </varray>
  </crystal>
  <varray name="positions" >
   <v>       0.00000000       0.00000000       0.00000000 </v>
   <v>       0.50000000       0.50000000       0.50000000 </v>
  </varray>
 </structure>
</modeling>
