ToDo                                    
   1.00000000000000     
     2.800000    0.000000    0.000000
     0.000000    2.800000    0.000000
     0.000000    0.000000    2.800000
   Fe
     2
Direct
  0.000000  0.000000  0.000000
  0.500000  0.500000  0.500000
 
   28   28   28
 0.18433661221E+03 0.17710378401E+03 0.15693576368E+03 0.12795495122E+03 0.95650490255E+02
 0.65348690723E+02 0.40898099801E+02 0.23970592508E+02 0.14132387681E+02 0.95220507383E+01
 0.77281979536E+01 0.67210658346E+01 0.60684824205E+01 0.57269480914E+01 0.56234536334E+01
 0.57269480914E+01 0.60684824205E+01 0.67210658346E+01 0.77281979536E+01 0.95220507383E+01
 0.14132387681E+02 0.23970592508E+02 0.40898099801E+02 0.65348690723E+02 0.95650490255E+02
 0.12795495122E+03 0.15693576368E+03 0.17710378401E+03 0.17710378401E+03 0.17021237678E+03
 0.15097196731E+03 0.12326052214E+03 0.92282352703E+02 0.63143206345E+02 0.39585077790E+02
 0.23273499779E+02 0.13820399168E+02 0.94175639384E+01 0.76954827868E+01 0.66998125622E+01
 0.60593905677E+01 0.57258067154E+01 0.56249689281E+01 0.57258067154E+01 0.60593905677E+01
 0.66998125622E+01 0.76954827868E+01 0.94175639384E+01 0.13820399168E+02 0.23273499779E+02
 0.39585077790E+02 0.63143206345E+02 0.92282352703E+02 0.12326052214E+03 0.15097196731E+03
 0.17021237678E+03 0.15693576368E+03 0.15097196731E+03 0.13425905423E+03 0.11002705272E+03
 0.82718695581E+02 0.56838038623E+02 0.35818883727E+02 0.21283028033E+02 0.12944662088E+02
 0.91317816829E+01 0.75956131775E+01 0.66367152511E+01 0.60327425165E+01 0.57222774160E+01
 0.56290814856E+01 0.57222774160E+01 0.60327425165E+01 0.66367152511E+01 0.75956131775E+01
 0.91317816829E+01 0.12944662088E+02 0.21283028033E+02 0.35818883727E+02 0.56838038623E+02
 0.82718695581E+02 0.11002705272E+03 0.13425905423E+03 0.15097196731E+03 0.12795495122E+03
 0.12326052214E+03 0.11002705272E+03 0.90643722908E+02 0.68544768332E+02 0.47401429274E+02
 0.30170107862E+02 0.18336589833E+02 0.11694744439E+02 0.87394581540E+01 0.74249602127E+01
 0.65351718655E+01 0.59907600182E+01 0.57161890300E+01 0.56346274144E+01 0.57161890300E+01
 0.59907600182E+01 0.65351718655E+01 0.74249602127E+01 0.87394581540E+01 0.11694744439E+02
 0.18336589833E+02 0.30170107862E+02 0.47401429274E+02 0.68544768332E+02 0.90643722908E+02
 0.11002705272E+03 0.12326052214E+03 0.95650490255E+02 0.92282352703E+02 0.82718695581E+02
 0.68544768332E+02 0.52192442639E+02 0.36439888748E+02 0.23646045600E+02 0.15027676543E+02
 0.10369428024E+02 0.83218506854E+01 0.71893272174E+01 0.64038464991E+01 0.59377799188E+01
 0.57076527944E+01 0.56401342814E+01 0.57076527944E+01 0.59377799188E+01 0.64038464991E+01
 0.71893272174E+01 0.83218506854E+01 0.10369428024E+02 0.15027676543E+02 0.23646045600E+02
 0.36439888748E+02 0.52192442639E+02 0.68544768332E+02 0.82718695581E+02 0.92282352703E+02
 0.65348690723E+02 0.63143206345E+02 0.56838038623E+02 0.47401429274E+02 0.36439888748E+02
 0.25906644438E+02 0.17505018672E+02 0.12061446054E+02 0.92559608476E+01 0.78835994209E+01
 0.69096315829E+01 0.62570716675E+01 0.58800103588E+01 0.56973627817E+01 0.56444117528E+01
 0.56973627817E+01 0.58800103588E+01 0.62570716675E+01 0.69096315829E+01 0.78835994209E+01
 0.92559608476E+01 0.12061446054E+02 0.17505018672E+02 0.25906644438E+02 0.36439888748E+02
 0.47401429274E+02 0.56838038623E+02 0.63143206345E+02 0.40898099801E+02 0.39585077790E+02
 0.35818883727E+02 0.30170107862E+02 0.23646045600E+02 0.17505018672E+02 0.12806855239E+02
 0.99369164499E+01 0.84333930646E+01 0.73963750106E+01 0.66181206022E+01 0.61117152559E+01
 0.58241458733E+01 0.56865239116E+01 0.56469428109E+01 0.56865239116E+01 0.58241458733E+01
 0.61117152559E+01 0.66181206022E+01 0.73963750106E+01 0.84333930646E+01 0.99369164499E+01
 0.12806855239E+02 0.17505018672E+02 0.23646045600E+02 0.30170107862E+02 0.35818883727E+02
 0.39585077790E+02 0.23970592508E+02 0.23273499779E+02 0.21283028033E+02 0.18336589833E+02
 0.15027676543E+02 0.12061446054E+02 0.99369164499E+01 0.86481600777E+01 0.77029893783E+01
 0.69177188626E+01 0.63476272500E+01 0.59822073700E+01 0.57754272619E+01 0.56763130249E+01
 0.56477545985E+01 0.56763130249E+01 0.57754272619E+01 0.59822073700E+01 0.63476272500E+01
 0.69177188626E+01 0.77029893783E+01 0.86481600777E+01 0.99369164499E+01 0.12061446054E+02
 0.15027676543E+02 0.18336589833E+02 0.21283028033E+02 0.23273499779E+02 0.14132387681E+02
 0.13820399168E+02 0.12944662088E+02 0.11694744439E+02 0.10369428024E+02 0.92559608476E+01
 0.84333930646E+01 0.77029893783E+01 0.70359604218E+01 0.65019626813E+01 0.61210967885E+01
 0.58767058857E+01 0.57362051058E+01 0.56672150878E+01 0.56469428109E+01 0.56672150878E+01
 0.57362051058E+01 0.58767058857E+01 0.61210967885E+01 0.65019626813E+01 0.70359604218E+01
 0.77029893783E+01 0.84333930646E+01 0.92559608476E+01 0.10369428024E+02 0.11694744439E+02
 0.12944662088E+02 0.13820399168E+02 0.95220507383E+01 0.94175639384E+01 0.91317816829E+01
 0.87394581540E+01 0.83218506854E+01 0.78835994209E+01 0.73963750106E+01 0.69177188626E+01
 0.65019626813E+01 0.61776421402E+01 0.59471085530E+01 0.57962553625E+01 0.57057881234E+01
 0.56588199584E+01 0.56444117528E+01 0.56588199584E+01 0.57057881234E+01 0.57962553625E+01
 0.59471085530E+01 0.61776421402E+01 0.65019626813E+01 0.69177188626E+01 0.73963750106E+01
 0.78835994209E+01 0.83218506854E+01 0.87394581540E+01 0.91317816829E+01 0.94175639384E+01
 0.77281979536E+01 0.76954827868E+01 0.75956131775E+01 0.74249602127E+01 0.71893272174E+01
 0.69096315829E+01 0.66181206022E+01 0.63476272500E+01 0.61210967885E+01 0.59471085530E+01
 0.58221852688E+01 0.57368682556E+01 0.56816697526E+01 0.56503514809E+01 0.56401342814E+01
 0.56503514809E+01 0.56816697526E+01 0.57368682556E+01 0.58221852688E+01 0.59471085530E+01
 0.61210967885E+01 0.63476272500E+01 0.66181206022E+01 0.69096315829E+01 0.71893272174E+01
 0.74249602127E+01 0.75956131775E+01 0.76954827868E+01 0.67210658346E+01 0.66998125622E+01
 0.66367152511E+01 0.65351718655E+01 0.64038464991E+01 0.62570716675E+01 0.61117152559E+01
 0.59822073700E+01 0.58767058857E+01 0.57962553625E+01 0.57368682556E+01 0.56931418385E+01
 0.56615269020E+01 0.56415640077E+01 0.56346274144E+01 0.56415640077E+01 0.56615269020E+01
 0.56931418385E+01 0.57368682556E+01 0.57962553625E+01 0.58767058857E+01 0.59822073700E+01
 0.61117152559E+01 0.62570716675E+01 0.64038464991E+01 0.65351718655E+01 0.66367152511E+01
 0.66998125622E+01 0.60684824205E+01 0.60593905677E+01 0.60327425165E+01 0.59907600182E+01
 0.59377799188E+01 0.58800103588E+01 0.58241458733E+01 0.57754272619E+01 0.57362051058E+01
 0.57057881234E+01 0.56816697526E+01 0.56615269020E+01 0.56448729207E+01 0.56332948088E+01
 0.56290814856E+01 0.56332948088E+01 0.56448729207E+01 0.56615269020E+01 0.56816697526E+01
 0.57057881234E+01 0.57362051058E+01 0.57754272619E+01 0.58241458733E+01 0.58800103588E+01
 0.59377799188E+01 0.59907600182E+01 0.60327425165E+01 0.60593905677E+01 0.57269480914E+01
 0.57258067154E+01 0.57222774160E+01 0.57161890300E+01 0.57076527944E+01 0.56973627817E+01
 0.56865239116E+01 0.56763130249E+01 0.56672150878E+01 0.56588199584E+01 0.56503514809E+01
 0.56415640077E+01 0.56332948088E+01 0.56272184912E+01 0.56249689281E+01 0.56272184912E+01
 0.56332948088E+01 0.56415640077E+01 0.56503514809E+01 0.56588199584E+01 0.56672150878E+01
 0.56763130249E+01 0.56865239116E+01 0.56973627817E+01 0.57076527944E+01 0.57161890300E+01
 0.57222774160E+01 0.57258067154E+01 0.56234536334E+01 0.56249689281E+01 0.56290814856E+01
 0.56346274144E+01 0.56401342814E+01 0.56444117528E+01 0.56469428109E+01 0.56477545985E+01
 0.56469428109E+01 0.56444117528E+01 0.56401342814E+01 0.56346274144E+01 0.56290814856E+01
 0.56249689281E+01 0.56234536334E+01 0.56249689281E+01 0.56290814856E+01 0.56346274144E+01
 0.56401342814E+01 0.56444117528E+01 0.56469428109E+01 0.56477545985E+01 0.56469428109E+01
 0.56444117528E+01 0.56401342814E+01 0.56346274144E+01 0.56290814856E+01 0.56249689281E+01
 0.57269480914E+01 0.57258067154E+01 0.57222774160E+01 0.57161890300E+01 0.57076527944E+01
 0.56973627817E+01 0.56865239116E+01 0.56763130249E+01 0.56672150878E+01 0.56588199584E+01
 0.56503514809E+01 0.56415640077E+01 0.56332948088E+01 0.56272184912E+01 0.56249689281E+01
 0.56272184912E+01 0.56332948088E+01 0.56415640077E+01 0.56503514809E+01 0.56588199584E+01
 0.56672150878E+01 0.56763130249E+01 0.56865239116E+01 0.56973627817E+01 0.57076527944E+01
 0.57161890300E+01 0.57222774160E+01 0.57258067154E+01 0.60684824205E+01 0.60593905677E+01
 0.60327425165E+01 0.59907600182E+01 0.59377799188E+01 0.58800103588E+01 0.58241458733E+01
 0.57754272619E+01 0.57362051058E+01 0.57057881234E+01 0.56816697526E+01 0.56615269020E+01
 0.56448729207E+01 0.56332948088E+01 0.56290814856E+01 0.56332948088E+01 0.56448729207E+01
 0.56615269020E+01 0.56816697526E+01 0.57057881234E+01 0.57362051058E+01 0.57754272619E+01
 0.58241458733E+01 0.58800103588E+01 0.59377799188E+01 0.59907600182E+01 0.60327425165E+01
 0.60593905677E+01 0.67210658346E+01 0.66998125622E+01 0.66367152511E+01 0.65351718655E+01
 0.64038464991E+01 0.62570716675E+01 0.61117152559E+01 0.59822073700E+01 0.58767058857E+01
 0.57962553625E+01 0.57368682556E+01 0.56931418385E+01 0.56615269020E+01 0.56415640077E+01
 0.56346274144E+01 0.56415640077E+01 0.56615269020E+01 0.56931418385E+01 0.57368682556E+01
 0.57962553625E+01 0.58767058857E+01 0.59822073700E+01 0.61117152559E+01 0.62570716675E+01
 0.64038464991E+01 0.65351718655E+01 0.66367152511E+01 0.66998125622E+01 0.77281979536E+01
 0.76954827868E+01 0.75956131775E+01 0.74249602127E+01 0.71893272174E+01 0.69096315829E+01
 0.66181206022E+01 0.63476272500E+01 0.61210967885E+01 0.59471085530E+01 0.58221852688E+01
 0.57368682556E+01 0.56816697526E+01 0.56503514809E+01 0.56401342814E+01 0.56503514809E+01
 0.56816697526E+01 0.57368682556E+01 0.58221852688E+01 0.59471085530E+01 0.61210967885E+01
 0.63476272500E+01 0.66181206022E+01 0.69096315829E+01 0.71893272174E+01 0.74249602127E+01
 0.75956131775E+01 0.76954827868E+01 0.95220507383E+01 0.94175639384E+01 0.91317816829E+01
 0.87394581540E+01 0.83218506854E+01 0.78835994209E+01 0.73963750106E+01 0.69177188626E+01
 0.65019626813E+01 0.61776421402E+01 0.59471085530E+01 0.57962553625E+01 0.57057881234E+01
 0.56588199584E+01 0.56444117528E+01 0.56588199584E+01 0.57057881234E+01 0.57962553625E+01
 0.59471085530E+01 0.61776421402E+01 0.65019626813E+01 0.69177188626E+01 0.73963750106E+01
 0.78835994209E+01 0.83218506854E+01 0.87394581540E+01 0.91317816829E+01 0.94175639384E+01
 0.14132387681E+02 0.13820399168E+02 0.12944662088E+02 0.11694744439E+02 0.10369428024E+02
 0.92559608476E+01 0.84333930646E+01 0.77029893783E+01 0.70359604218E+01 0.65019626813E+01
 0.61210967885E+01 0.58767058857E+01 0.57362051058E+01 0.56672150878E+01 0.56469428109E+01
 0.56672150878E+01 0.57362051058E+01 0.58767058857E+01 0.61210967885E+01 0.65019626813E+01
 0.70359604218E+01 0.77029893783E+01 0.84333930646E+01 0.92559608476E+01 0.10369428024E+02
 0.11694744439E+02 0.12944662088E+02 0.13820399168E+02 0.23970592508E+02 0.23273499779E+02
 0.21283028033E+02 0.18336589833E+02 0.15027676543E+02 0.12061446054E+02 0.99369164499E+01
 0.86481600777E+01 0.77029893783E+01 0.69177188626E+01 0.63476272500E+01 0.59822073700E+01
 0.57754272619E+01 0.56763130249E+01 0.56477545985E+01 0.56763130249E+01 0.57754272619E+01
 0.59822073700E+01 0.63476272500E+01 0.69177188626E+01 0.77029893783E+01 0.86481600777E+01
 0.99369164499E+01 0.12061446054E+02 0.15027676543E+02 0.18336589833E+02 0.21283028033E+02
 0.23273499779E+02 0.40898099801E+02 0.39585077790E+02 0.35818883727E+02 0.30170107862E+02
 0.23646045600E+02 0.17505018672E+02 0.12806855239E+02 0.99369164499E+01 0.84333930646E+01
 0.73963750106E+01 0.66181206022E+01 0.61117152559E+01 0.58241458733E+01 0.56865239116E+01
 0.56469428109E+01 0.56865239116E+01 0.58241458733E+01 0.61117152559E+01 0.66181206022E+01
 0.73963750106E+01 0.84333930646E+01 0.99369164499E+01 0.12806855239E+02 0.17505018672E+02
 0.23646045600E+02 0.30170107862E+02 0.35818883727E+02 0.39585077790E+02 0.65348690723E+02
 0.63143206345E+02 0.56838038623E+02 0.47401429274E+02 0.36439888748E+02 0.25906644438E+02
 0.17505018672E+02 0.12061446054E+02 0.92559608476E+01 0.78835994209E+01 0.69096315829E+01
 0.62570716675E+01 0.58800103588E+01 0.56973627817E+01 0.56444117528E+01 0.56973627817E+01
 0.58800103588E+01 0.62570716675E+01 0.69096315829E+01 0.78835994209E+01 0.92559608476E+01
 0.12061446054E+02 0.17505018672E+02 0.25906644438E+02 0.36439888748E+02 0.47401429274E+02
 0.56838038623E+02 0.63143206345E+02 0.95650490255E+02 0.92282352703E+02 0.82718695581E+02
 0.68544768332E+02 0.52192442639E+02 0.36439888748E+02 0.23646045600E+02 0.15027676543E+02
 0.10369428024E+02 0.83218506854E+01 0.71893272174E+01 0.64038464991E+01 0.59377799188E+01
 0.57076527944E+01 0.56401342814E+01 0.57076527944E+01 0.59377799188E+01 0.64038464991E+01
 0.71893272174E+01 0.83218506854E+01 0.10369428024E+02 0.15027676543E+02 0.23646045600E+02
 0.36439888748E+02 0.52192442639E+02 0.68544768332E+02 0.82718695581E+02 0.92282352703E+02
 0.12795495122E+03 0.12326052214E+03 0.11002705272E+03 0.90643722908E+02 0.68544768332E+02
 0.47401429274E+02 0.30170107862E+02 0.18336589833E+02 0.11694744439E+02 0.87394581540E+01
 0.74249602127E+01 0.65351718655E+01 0.59907600182E+01 0.57161890300E+01 0.56346274144E+01
 0.57161890300E+01 0.59907600182E+01 0.65351718655E+01 0.74249602127E+01 0.87394581540E+01
 0.11694744439E+02 0.18336589833E+02 0.30170107862E+02 0.47401429274E+02 0.68544768332E+02
 0.90643722908E+02 0.11002705272E+03 0.12326052214E+03 0.15693576368E+03 0.15097196731E+03
 0.13425905423E+03 0.11002705272E+03 0.82718695581E+02 0.56838038623E+02 0.35818883727E+02
 0.21283028033E+02 0.12944662088E+02 0.91317816829E+01 0.75956131775E+01 0.66367152511E+01
 0.60327425165E+01 0.57222774160E+01 0.56290814856E+01 0.57222774160E+01 0.60327425165E+01
 0.66367152511E+01 0.75956131775E+01 0.91317816829E+01 0.12944662088E+02 0.21283028033E+02
 0.35818883727E+02 0.56838038623E+02 0.82718695581E+02 0.11002705272E+03 0.13425905423E+03
 0.15097196731E+03 0.17710378401E+03 0.17021237678E+03 0.15097196731E+03 0.12326052214E+03
 0.92282352703E+02 0.63143206345E+02 0.39585077790E+02 0.23273499779E+02 0.13820399168E+02
 0.94175639384E+01 0.76954827868E+01 0.66998125622E+01 0.60593905677E+01 0.57258067154E+01
 0.56249689281E+01 0.57258067154E+01 0.60593905677E+01 0.66998125622E+01 0.76954827868E+01
 0.94175639384E+01 0.13820399168E+02 0.23273499779E+02 0.39585077790E+02 0.63143206345E+02
 0.92282352703E+02 0.12326052214E+03 0.15097196731E+03 0.17021237678E+03 0.17710378401E+03
 0.17021237678E+03 0.15097196731E+03 0.12326052214E+03 0.92282352703E+02 0.63143206345E+02
 0.39585077790E+02 0.23273499779E+02 0.13820399168E+02 0.94175639384E+01 0.76954827868E+01
 0.66998125622E+01 0.60593905677E+01 0.57258067154E+01 0.56249689281E+01 0.57258067154E+01
 0.60593905677E+01 0.66998125622E+01 0.76954827868E+01 0.94175639384E+01 0.13820399168E+02
 0.23273499779E+02 0.39585077790E+02 0.63143206345E+02 0.92282352703E+02 0.12326052214E+03
 0.15097196731E+03 0.17021237678E+03 0.17021237678E+03 0.16364175921E+03 0.14527412841E+03
 0.11876057808E+03 0.89040104498E+02 0.61011149167E+02 0.38312624755E+02 0.22599416169E+02
 0.13522075807E+02 0.93202326616E+01 0.76643577116E+01 0.66799994971E+01 0.60514368789E+01
 0.57255096913E+01 0.56272184912E+01 0.57255096913E+01 0.60514368789E+01 0.66799994971E+01
 0.76643577116E+01 0.93202326616E+01 0.13522075807E+02 0.22599416169E+02 0.38312624755E+02
 0.61011149167E+02 0.89040104498E+02 0.11876057808E+03 0.14527412841E+03 0.16364175921E+03
 0.15097196731E+03 0.14527412841E+03 0.12928816119E+03 0.10606359995E+03 0.79829352811E+02
 0.54917096960E+02 0.34666762877E+02 0.20678436970E+02 0.12686822879E+02 0.90542444299E+01
 0.75682491650E+01 0.66208789511E+01 0.60278800754E+01 0.57242490656E+01 0.56332948088E+01
 0.57242490656E+01 0.60278800754E+01 0.66208789511E+01 0.75682491650E+01 0.90542444299E+01
 0.12686822879E+02 0.20678436970E+02 0.34666762877E+02 0.54917096960E+02 0.79829352811E+02
 0.10606359995E+03 0.12928816119E+03 0.14527412841E+03 0.12326052214E+03 0.11876057808E+03
 0.10606359995E+03 0.87437760525E+02 0.66169387463E+02 0.45802038343E+02 0.29210392431E+02
 0.17845459058E+02 0.11500238536E+02 0.86886462449E+01 0.74033152108E+01 0.65250595539E+01
 0.59902373708E+01 0.57213146668E+01 0.56415640077E+01 0.57213146668E+01 0.59902373708E+01
 0.65250595539E+01 0.74033152108E+01 0.86886462449E+01 0.11500238536E+02 0.17845459058E+02
 0.29210392431E+02 0.45802038343E+02 0.66169387463E+02 0.87437760525E+02 0.10606359995E+03
 0.11876057808E+03 0.92282352703E+02 0.89040104498E+02 0.79829352811E+02 0.66169387463E+02
 0.50405123854E+02 0.35228674406E+02 0.22929714435E+02 0.14680725995E+02 0.10249300433E+02
 0.82943923038E+01 0.71750221857E+01 0.64004825499E+01 0.59423127129E+01 0.57165226424E+01
 0.56503514809E+01 0.57165226424E+01 0.59423127129E+01 0.64004825499E+01 0.71750221857E+01
 0.82943923038E+01 0.10249300433E+02 0.14680725995E+02 0.22929714435E+02 0.35228674406E+02
 0.50405123854E+02 0.66169387463E+02 0.79829352811E+02 0.89040104498E+02 0.63143206345E+02
 0.61011149167E+02 0.54917096960E+02 0.45802038343E+02 0.35228674406E+02 0.25094678586E+02
 0.17045806416E+02 0.11862271116E+02 0.92012845819E+01 0.78664358298E+01 0.69040017721E+01
 0.62611820883E+01 0.58903172776E+01 0.57108272451E+01 0.56588199584E+01 0.57108272451E+01
 0.58903172776E+01 0.62611820883E+01 0.69040017721E+01 0.78664358298E+01 0.92012845819E+01
 0.11862271116E+02 0.17045806416E+02 0.25094678586E+02 0.35228674406E+02 0.45802038343E+02
 0.54917096960E+02 0.61011149167E+02 0.39585077790E+02 0.38312624755E+02 0.34666762877E+02
 0.29210392431E+02 0.22929714435E+02 0.17045806416E+02 0.12572337304E+02 0.98549970055E+01
 0.84138912433E+01 0.73889806332E+01 0.66222579643E+01 0.61241432048E+01 0.58414155648E+01
 0.57061233563E+01 0.56672150878E+01 0.57061233563E+01 0.58414155648E+01 0.61241432048E+01
 0.66222579643E+01 0.73889806332E+01 0.84138912433E+01 0.98549970055E+01 0.12572337304E+02
 0.17045806416E+02 0.22929714435E+02 0.29210392431E+02 0.34666762877E+02 0.38312624755E+02
 0.23273499779E+02 0.22599416169E+02 0.20678436970E+02 0.17845459058E+02 0.14680725995E+02
 0.11862271116E+02 0.98549970055E+01 0.86260874841E+01 0.76944434822E+01 0.69218882784E+01
 0.63623295477E+01 0.60040569662E+01 0.58014102557E+01 0.57042936375E+01 0.56763130249E+01
 0.57042936375E+01 0.58014102557E+01 0.60040569662E+01 0.63623295477E+01 0.69218882784E+01
 0.76944434822E+01 0.86260874841E+01 0.98549970055E+01 0.11862271116E+02 0.14680725995E+02
 0.17845459058E+02 0.20678436970E+02 0.22599416169E+02 0.13820399168E+02 0.13522075807E+02
 0.12686822879E+02 0.11500238536E+02 0.10249300433E+02 0.92012845819E+01 0.84138912433E+01
 0.76944434822E+01 0.70400952668E+01 0.65180576505E+01 0.61467829144E+01 0.59091702658E+01
 0.57729009029E+01 0.57061233563E+01 0.56865239116E+01 0.57061233563E+01 0.57729009029E+01
 0.59091702658E+01 0.61467829144E+01 0.65180576505E+01 0.70400952668E+01 0.76944434822E+01
 0.84138912433E+01 0.92012845819E+01 0.10249300433E+02 0.11500238536E+02 0.12686822879E+02
 0.13522075807E+02 0.94175639384E+01 0.93202326616E+01 0.90542444299E+01 0.86886462449E+01
 0.82943923038E+01 0.78664358298E+01 0.73889806332E+01 0.69218882784E+01 0.65180576505E+01
 0.62048098082E+01 0.59837096889E+01 0.58402154998E+01 0.57548619084E+01 0.57108272451E+01
 0.56973627817E+01 0.57108272451E+01 0.57548619084E+01 0.58402154998E+01 0.59837096889E+01
 0.62048098082E+01 0.65180576505E+01 0.69218882784E+01 0.73889806332E+01 0.78664358298E+01
 0.82943923038E+01 0.86886462449E+01 0.90542444299E+01 0.93202326616E+01 0.76954827868E+01
 0.76643577116E+01 0.75682491650E+01 0.74033152108E+01 0.71750221857E+01 0.69040017721E+01
 0.66222579643E+01 0.63623295477E+01 0.61467829144E+01 0.59837096889E+01 0.58689915008E+01
 0.57924139881E+01 0.57438073608E+01 0.57165226424E+01 0.57076527944E+01 0.57165226424E+01
 0.57438073608E+01 0.57924139881E+01 0.58689915008E+01 0.59837096889E+01 0.61467829144E+01
 0.63623295477E+01 0.66222579643E+01 0.69040017721E+01 0.71750221857E+01 0.74033152108E+01
 0.75682491650E+01 0.76643577116E+01 0.66998125622E+01 0.66799994971E+01 0.66208789511E+01
 0.65250595539E+01 0.64004825499E+01 0.62611820883E+01 0.61241432048E+01 0.60040569662E+01
 0.59091702658E+01 0.58402154998E+01 0.57924139881E+01 0.57592324747E+01 0.57359709909E+01
 0.57213146668E+01 0.57161890300E+01 0.57213146668E+01 0.57359709909E+01 0.57592324747E+01
 0.57924139881E+01 0.58402154998E+01 0.59091702658E+01 0.60040569662E+01 0.61241432048E+01
 0.62611820883E+01 0.64004825499E+01 0.65250595539E+01 0.66208789511E+01 0.66799994971E+01
 0.60593905677E+01 0.60514368789E+01 0.60278800754E+01 0.59902373708E+01 0.59423127129E+01
 0.58903172776E+01 0.58414155648E+01 0.58014102557E+01 0.57729009029E+01 0.57548619084E+01
 0.57438073608E+01 0.57359709909E+01 0.57293331393E+01 0.57242490656E+01 0.57222774160E+01
 0.57242490656E+01 0.57293331393E+01 0.57359709909E+01 0.57438073608E+01 0.57548619084E+01
 0.57729009029E+01 0.58014102557E+01 0.58414155648E+01 0.58903172776E+01 0.59423127129E+01
 0.59902373708E+01 0.60278800754E+01 0.60514368789E+01 0.57258067154E+01 0.57255096913E+01
 0.57242490656E+01 0.57213146668E+01 0.57165226424E+01 0.57108272451E+01 0.57061233563E+01
 0.57042936375E+01 0.57061233563E+01 0.57108272451E+01 0.57165226424E+01 0.57213146668E+01
 0.57242490656E+01 0.57255096913E+01 0.57258067154E+01 0.57255096913E+01 0.57242490656E+01
 0.57213146668E+01 0.57165226424E+01 0.57108272451E+01 0.57061233563E+01 0.57042936375E+01
 0.57061233563E+01 0.57108272451E+01 0.57165226424E+01 0.57213146668E+01 0.57242490656E+01
 0.57255096913E+01 0.56249689281E+01 0.56272184912E+01 0.56332948088E+01 0.56415640077E+01
 0.56503514809E+01 0.56588199584E+01 0.56672150878E+01 0.56763130249E+01 0.56865239116E+01
 0.56973627817E+01 0.57076527944E+01 0.57161890300E+01 0.57222774160E+01 0.57258067154E+01
 0.57269480914E+01 0.57258067154E+01 0.57222774160E+01 0.57161890300E+01 0.57076527944E+01
 0.56973627817E+01 0.56865239116E+01 0.56763130249E+01 0.56672150878E+01 0.56588199584E+01
 0.56503514809E+01 0.56415640077E+01 0.56332948088E+01 0.56272184912E+01 0.57258067154E+01
 0.57255096913E+01 0.57242490656E+01 0.57213146668E+01 0.57165226424E+01 0.57108272451E+01
 0.57061233563E+01 0.57042936375E+01 0.57061233563E+01 0.57108272451E+01 0.57165226424E+01
 0.57213146668E+01 0.57242490656E+01 0.57255096913E+01 0.57258067154E+01 0.57255096913E+01
 0.57242490656E+01 0.57213146668E+01 0.57165226424E+01 0.57108272451E+01 0.57061233563E+01
 0.57042936375E+01 0.57061233563E+01 0.57108272451E+01 0.57165226424E+01 0.57213146668E+01
 0.57242490656E+01 0.57255096913E+01 0.60593905677E+01 0.60514368789E+01 0.60278800754E+01
 0.59902373708E+01 0.59423127129E+01 0.58903172776E+01 0.58414155648E+01 0.58014102557E+01
 0.57729009029E+01 0.57548619084E+01 0.57438073608E+01 0.57359709909E+01 0.57293331393E+01
 0.57242490656E+01 0.57222774160E+01 0.57242490656E+01 0.57293331393E+01 0.57359709909E+01
 0.57438073608E+01 0.57548619084E+01 0.57729009029E+01 0.58014102557E+01 0.58414155648E+01
 0.58903172776E+01 0.59423127129E+01 0.59902373708E+01 0.60278800754E+01 0.60514368789E+01
 0.66998125622E+01 0.66799994971E+01 0.66208789511E+01 0.65250595539E+01 0.64004825499E+01
 0.62611820883E+01 0.61241432048E+01 0.60040569662E+01 0.59091702658E+01 0.58402154998E+01
 0.57924139881E+01 0.57592324747E+01 0.57359709909E+01 0.57213146668E+01 0.57161890300E+01
 0.57213146668E+01 0.57359709909E+01 0.57592324747E+01 0.57924139881E+01 0.58402154998E+01
 0.59091702658E+01 0.60040569662E+01 0.61241432048E+01 0.62611820883E+01 0.64004825499E+01
 0.65250595539E+01 0.66208789511E+01 0.66799994971E+01 0.76954827868E+01 0.76643577116E+01
 0.75682491650E+01 0.74033152108E+01 0.71750221857E+01 0.69040017721E+01 0.66222579643E+01
 0.63623295477E+01 0.61467829144E+01 0.59837096889E+01 0.58689915008E+01 0.57924139881E+01
 0.57438073608E+01 0.57165226424E+01 0.57076527944E+01 0.57165226424E+01 0.57438073608E+01
 0.57924139881E+01 0.58689915008E+01 0.59837096889E+01 0.61467829144E+01 0.63623295477E+01
 0.66222579643E+01 0.69040017721E+01 0.71750221857E+01 0.74033152108E+01 0.75682491650E+01
 0.76643577116E+01 0.94175639384E+01 0.93202326616E+01 0.90542444299E+01 0.86886462449E+01
 0.82943923038E+01 0.78664358298E+01 0.73889806332E+01 0.69218882784E+01 0.65180576505E+01
 0.62048098082E+01 0.59837096889E+01 0.58402154998E+01 0.57548619084E+01 0.57108272451E+01
 0.56973627817E+01 0.57108272451E+01 0.57548619084E+01 0.58402154998E+01 0.59837096889E+01
 0.62048098082E+01 0.65180576505E+01 0.69218882784E+01 0.73889806332E+01 0.78664358298E+01
 0.82943923038E+01 0.86886462449E+01 0.90542444299E+01 0.93202326616E+01 0.13820399168E+02
 0.13522075807E+02 0.12686822879E+02 0.11500238536E+02 0.10249300433E+02 0.92012845819E+01
 0.84138912433E+01 0.76944434822E+01 0.70400952668E+01 0.65180576505E+01 0.61467829144E+01
 0.59091702658E+01 0.57729009029E+01 0.57061233563E+01 0.56865239116E+01 0.57061233563E+01
 0.57729009029E+01 0.59091702658E+01 0.61467829144E+01 0.65180576505E+01 0.70400952668E+01
 0.76944434822E+01 0.84138912433E+01 0.92012845819E+01 0.10249300433E+02 0.11500238536E+02
 0.12686822879E+02 0.13522075807E+02 0.23273499779E+02 0.22599416169E+02 0.20678436970E+02
 0.17845459058E+02 0.14680725995E+02 0.11862271116E+02 0.98549970055E+01 0.86260874841E+01
 0.76944434822E+01 0.69218882784E+01 0.63623295477E+01 0.60040569662E+01 0.58014102557E+01
 0.57042936375E+01 0.56763130249E+01 0.57042936375E+01 0.58014102557E+01 0.60040569662E+01
 0.63623295477E+01 0.69218882784E+01 0.76944434822E+01 0.86260874841E+01 0.98549970055E+01
 0.11862271116E+02 0.14680725995E+02 0.17845459058E+02 0.20678436970E+02 0.22599416169E+02
 0.39585077790E+02 0.38312624755E+02 0.34666762877E+02 0.29210392431E+02 0.22929714435E+02
 0.17045806416E+02 0.12572337304E+02 0.98549970055E+01 0.84138912433E+01 0.73889806332E+01
 0.66222579643E+01 0.61241432048E+01 0.58414155648E+01 0.57061233563E+01 0.56672150878E+01
 0.57061233563E+01 0.58414155648E+01 0.61241432048E+01 0.66222579643E+01 0.73889806332E+01
 0.84138912433E+01 0.98549970055E+01 0.12572337304E+02 0.17045806416E+02 0.22929714435E+02
 0.29210392431E+02 0.34666762877E+02 0.38312624755E+02 0.63143206345E+02 0.61011149167E+02
 0.54917096960E+02 0.45802038343E+02 0.35228674406E+02 0.25094678586E+02 0.17045806416E+02
 0.11862271116E+02 0.92012845819E+01 0.78664358298E+01 0.69040017721E+01 0.62611820883E+01
 0.58903172776E+01 0.57108272451E+01 0.56588199584E+01 0.57108272451E+01 0.58903172776E+01
 0.62611820883E+01 0.69040017721E+01 0.78664358298E+01 0.92012845819E+01 0.11862271116E+02
 0.17045806416E+02 0.25094678586E+02 0.35228674406E+02 0.45802038343E+02 0.54917096960E+02
 0.61011149167E+02 0.92282352703E+02 0.89040104498E+02 0.79829352811E+02 0.66169387463E+02
 0.50405123854E+02 0.35228674406E+02 0.22929714435E+02 0.14680725995E+02 0.10249300433E+02
 0.82943923038E+01 0.71750221857E+01 0.64004825499E+01 0.59423127129E+01 0.57165226424E+01
 0.56503514809E+01 0.57165226424E+01 0.59423127129E+01 0.64004825499E+01 0.71750221857E+01
 0.82943923038E+01 0.10249300433E+02 0.14680725995E+02 0.22929714435E+02 0.35228674406E+02
 0.50405123854E+02 0.66169387463E+02 0.79829352811E+02 0.89040104498E+02 0.12326052214E+03
 0.11876057808E+03 0.10606359995E+03 0.87437760525E+02 0.66169387463E+02 0.45802038343E+02
 0.29210392431E+02 0.17845459058E+02 0.11500238536E+02 0.86886462449E+01 0.74033152108E+01
 0.65250595539E+01 0.59902373708E+01 0.57213146668E+01 0.56415640077E+01 0.57213146668E+01
 0.59902373708E+01 0.65250595539E+01 0.74033152108E+01 0.86886462449E+01 0.11500238536E+02
 0.17845459058E+02 0.29210392431E+02 0.45802038343E+02 0.66169387463E+02 0.87437760525E+02
 0.10606359995E+03 0.11876057808E+03 0.15097196731E+03 0.14527412841E+03 0.12928816119E+03
 0.10606359995E+03 0.79829352811E+02 0.54917096960E+02 0.34666762877E+02 0.20678436970E+02
 0.12686822879E+02 0.90542444299E+01 0.75682491650E+01 0.66208789511E+01 0.60278800754E+01
 0.57242490656E+01 0.56332948088E+01 0.57242490656E+01 0.60278800754E+01 0.66208789511E+01
 0.75682491650E+01 0.90542444299E+01 0.12686822879E+02 0.20678436970E+02 0.34666762877E+02
 0.54917096960E+02 0.79829352811E+02 0.10606359995E+03 0.12928816119E+03 0.14527412841E+03
 0.17021237678E+03 0.16364175921E+03 0.14527412841E+03 0.11876057808E+03 0.89040104498E+02
 0.61011149167E+02 0.38312624755E+02 0.22599416169E+02 0.13522075807E+02 0.93202326616E+01
 0.76643577116E+01 0.66799994971E+01 0.60514368789E+01 0.57255096913E+01 0.56272184912E+01
 0.57255096913E+01 0.60514368789E+01 0.66799994971E+01 0.76643577116E+01 0.93202326616E+01
 0.13522075807E+02 0.22599416169E+02 0.38312624755E+02 0.61011149167E+02 0.89040104498E+02
 0.11876057808E+03 0.14527412841E+03 0.16364175921E+03 0.15693576368E+03 0.15097196731E+03
 0.13425905423E+03 0.11002705272E+03 0.82718695581E+02 0.56838038623E+02 0.35818883727E+02
 0.21283028033E+02 0.12944662088E+02 0.91317816829E+01 0.75956131775E+01 0.66367152511E+01
 0.60327425165E+01 0.57222774160E+01 0.56290814856E+01 0.57222774160E+01 0.60327425165E+01
 0.66367152511E+01 0.75956131775E+01 0.91317816829E+01 0.12944662088E+02 0.21283028033E+02
 0.35818883727E+02 0.56838038623E+02 0.82718695581E+02 0.11002705272E+03 0.13425905423E+03
 0.15097196731E+03 0.15097196731E+03 0.14527412841E+03 0.12928816119E+03 0.10606359995E+03
 0.79829352811E+02 0.54917096960E+02 0.34666762877E+02 0.20678436970E+02 0.12686822879E+02
 0.90542444299E+01 0.75682491650E+01 0.66208789511E+01 0.60278800754E+01 0.57242490656E+01
 0.56332948088E+01 0.57242490656E+01 0.60278800754E+01 0.66208789511E+01 0.75682491650E+01
 0.90542444299E+01 0.12686822879E+02 0.20678436970E+02 0.34666762877E+02 0.54917096960E+02
 0.79829352811E+02 0.10606359995E+03 0.12928816119E+03 0.14527412841E+03 0.13425905423E+03
 0.12928816119E+03 0.11529562759E+03 0.94851808725E+02 0.71611280325E+02 0.49431043094E+02