   2   2   0   0
  0.1097600E+02  0.2800000E-09  0.2800000E-09  0.2800000E-09  0.5000000E-15
  1.000000000000000E-004
  CAR 
 ToDo                                    
     17.13920837     -3.53901238  301      5.97876516      1.00000000
     -3.539  0.0000E+00  0.0000E+00
     -3.470  0.0000E+00  0.0000E+00
     -3.401  0.0000E+00  0.0000E+00
     -3.332  0.0000E+00  0.0000E+00
     -3.263  0.0000E+00  0.0000E+00
     -3.194 -0.1500E-28 -0.1034E-29
     -3.125 -0.3820E-26 -0.2643E-27
     -3.057 -0.7677E-24 -0.5318E-25
     -2.988 -0.1214E-21 -0.8420E-23
     -2.919 -0.1509E-19 -0.1049E-20
     -2.850 -0.1476E-17 -0.1028E-18
     -2.781 -0.1134E-15 -0.7918E-17
     -2.712 -0.6642E-14 -0.4657E-15
     -2.643 -0.3138E-12 -0.2209E-13
     -2.574 -0.1161E-10 -0.8222E-12
     -2.505 -0.3363E-09 -0.2400E-10
     -2.436 -0.7615E-08 -0.5489E-09
     -2.367 -0.1345E-06 -0.9823E-08
     -2.298 -0.1850E-05 -0.1373E-06
     -2.229 -0.1971E-04 -0.1496E-05
     -2.160 -0.1619E-03 -0.1266E-04
     -2.092 -0.1017E-02 -0.8274E-04
     -2.023 -0.4811E-02 -0.4143E-03
     -1.954 -0.1670E-01 -0.1566E-02
     -1.885 -0.4008E-01 -0.4329E-02
     -1.816 -0.5449E-01 -0.8085E-02
     -1.747  0.1301E-01 -0.7188E-02
     -1.678  0.2564E+00  0.1049E-01
     -1.609  0.6561E+00  0.5571E-01
     -1.540  0.9883E+00  0.1238E+00
     -1.471  0.9945E+00  0.1924E+00
     -1.402  0.6694E+00  0.2385E+00
     -1.333  0.2675E+00  0.2570E+00
     -1.264  0.1771E-01  0.2582E+00
     -1.195 -0.5414E-01  0.2544E+00
     -1.127 -0.4092E-01  0.2516E+00
     -1.058 -0.1729E-01  0.2504E+00
     -0.989 -0.5032E-02  0.2501E+00
     -0.920 -0.1074E-02  0.2500E+00
     -0.851 -0.1725E-03  0.2500E+00
     -0.782 -0.2118E-04  0.2500E+00
     -0.713 -0.2004E-05  0.2500E+00
     -0.644 -0.1469E-06  0.2500E+00
     -0.575 -0.8382E-08  0.2500E+00
     -0.506 -0.3744E-09  0.2500E+00
     -0.437 -0.6159E-10  0.2500E+00
     -0.368 -0.1376E-08  0.2500E+00
     -0.299 -0.3042E-07  0.2500E+00
     -0.230 -0.5247E-06  0.2500E+00
     -0.162 -0.7041E-05  0.2500E+00
     -0.093 -0.7320E-04  0.2500E+00
     -0.024 -0.5863E-03  0.2500E+00
      0.045 -0.3585E-02  0.2497E+00
      0.114 -0.1649E-01  0.2486E+00
      0.183 -0.5546E-01  0.2447E+00
      0.252 -0.1277E+00  0.2359E+00
      0.321 -0.1596E+00  0.2249E+00
      0.390  0.8296E-01  0.2307E+00
      0.459  0.8702E+00  0.2906E+00
      0.528  0.2087E+01  0.4345E+00
      0.597  0.3017E+01  0.6425E+00
      0.666  0.2925E+01  0.8441E+00
      0.734  0.1888E+01  0.9742E+00
      0.803  0.7048E+00  0.1023E+01
      0.872  0.1215E-01  0.1024E+01
      0.941 -0.1680E+00  0.1012E+01
      1.010 -0.1301E+00  0.1003E+01
      1.079 -0.9812E-01  0.9963E+00
      1.148 -0.1352E+00  0.9870E+00
      1.217 -0.1655E+00  0.9756E+00
      1.286  0.4868E-01  0.9789E+00
      1.355  0.7929E+00  0.1034E+01
      1.424  0.1996E+01  0.1171E+01
      1.493  0.2970E+01  0.1376E+01
      1.562  0.2937E+01  0.1578E+01
      1.631  0.1877E+01  0.1708E+01
      1.699  0.5689E+00  0.1747E+01
      1.768 -0.1659E+00  0.1735E+01
      1.837  0.1088E+00  0.1743E+01
      1.906  0.1457E+01  0.1843E+01
      1.975  0.3378E+01  0.2076E+01
      2.044  0.4714E+01  0.2401E+01
      2.113  0.4479E+01  0.2710E+01
      2.182  0.2945E+01  0.2913E+01
      2.251  0.1508E+01  0.3017E+01
      2.320  0.1307E+01  0.3107E+01
      2.389  0.2150E+01  0.3255E+01
      2.458  0.2878E+01  0.3453E+01
      2.527  0.2683E+01  0.3638E+01
      2.596  0.1837E+01  0.3765E+01
      2.664  0.1094E+01  0.3840E+01
      2.733  0.8756E+00  0.3901E+01
      2.802  0.1289E+01  0.3990E+01
      2.871  0.2358E+01  0.4152E+01
      2.940  0.3788E+01  0.4413E+01
      3.009  0.4905E+01  0.4751E+01
      3.078  0.5227E+01  0.5112E+01
      3.147  0.4928E+01  0.5451E+01
      3.216  0.4603E+01  0.5769E+01
      3.285  0.4737E+01  0.6095E+01
      3.354  0.5322E+01  0.6462E+01
      3.423  0.5682E+01  0.6854E+01
      3.492  0.4958E+01  0.7195E+01
      3.561  0.3177E+01  0.7414E+01
      3.629  0.1542E+01  0.7521E+01
      3.698  0.1214E+01  0.7604E+01
      3.767  0.2131E+01  0.7751E+01
      3.836  0.3328E+01  0.7981E+01
      3.905  0.4106E+01  0.8264E+01
      3.974  0.4493E+01  0.8573E+01
      4.043  0.4767E+01  0.8902E+01
      4.112  0.4995E+01  0.9246E+01
      4.181  0.5093E+01  0.9597E+01
      4.250  0.5137E+01  0.9951E+01
      4.319  0.5468E+01  0.1033E+02
      4.388  0.6118E+01  0.1075E+02
      4.457  0.6290E+01  0.1118E+02
      4.525  0.5115E+01  0.1154E+02
      4.594  0.2896E+01  0.1174E+02
      4.663  0.8590E+00  0.1179E+02
      4.732 -0.1727E+00  0.1178E+02
      4.801 -0.2775E+00  0.1176E+02
      4.870  0.9443E-01  0.1177E+02
      4.939  0.5523E+00  0.1181E+02
      5.008  0.8288E+00  0.1187E+02
      5.077  0.9263E+00  0.1193E+02
      5.146  0.1200E+01  0.1201E+02
      5.215  0.1915E+01  0.1214E+02
      5.284  0.2770E+01  0.1233E+02
      5.353  0.3287E+01  0.1256E+02
      5.422  0.3524E+01  0.1280E+02
      5.490  0.3848E+01  0.1307E+02
      5.559  0.4234E+01  0.1336E+02
      5.628  0.4450E+01  0.1367E+02
      5.697  0.4685E+01  0.1399E+02
      5.766  0.5414E+01  0.1436E+02
      5.835  0.6687E+01  0.1483E+02
      5.904  0.7891E+01  0.1537E+02
      5.973  0.8439E+01  0.1595E+02
      6.042  0.8477E+01  0.1654E+02
      6.111  0.8328E+01  0.1711E+02
      6.180  0.7567E+01  0.1763E+02
      6.249  0.5760E+01  0.1803E+02
      6.318  0.3742E+01  0.1829E+02
      6.387  0.2911E+01  0.1849E+02
      6.455  0.3491E+01  0.1873E+02
      6.524  0.4518E+01  0.1904E+02
      6.593  0.5246E+01  0.1940E+02
      6.662  0.5721E+01  0.1979E+02
      6.731  0.5996E+01  0.2021E+02
      6.800  0.5575E+01  0.2059E+02
      6.869  0.4078E+01  0.2087E+02
      6.938  0.2044E+01  0.2101E+02
      7.007  0.4646E+00  0.2105E+02
      7.076 -0.2341E+00  0.2103E+02
      7.145 -0.3491E+00  0.2101E+02
      7.214 -0.2985E+00  0.2099E+02
      7.283 -0.1514E+00  0.2097E+02
      7.352  0.3557E+00  0.2100E+02
      7.420  0.1403E+01  0.2110E+02
      7.489  0.2604E+01  0.2128E+02
      7.558  0.3121E+01  0.2149E+02
      7.627  0.2527E+01  0.2166E+02
      7.696  0.1313E+01  0.2176E+02
      7.765  0.3123E+00  0.2178E+02
      7.834 -0.1166E+00  0.2177E+02
      7.903 -0.1536E+00  0.2176E+02
      7.972 -0.8026E-01  0.2175E+02
      8.041 -0.2727E-01  0.2175E+02
      8.110 -0.6653E-02  0.2175E+02
      8.179 -0.1210E-02  0.2175E+02
      8.248 -0.1673E-03  0.2175E+02
      8.317 -0.1777E-04  0.2175E+02
      8.385 -0.1459E-05  0.2175E+02
      8.454 -0.9790E-07  0.2175E+02
      8.523 -0.1013E-06  0.2175E+02
      8.592 -0.1510E-05  0.2175E+02
      8.661 -0.1833E-04  0.2175E+02
      8.730 -0.1720E-03  0.2175E+02
      8.799 -0.1240E-02  0.2175E+02
      8.868 -0.6791E-02  0.2175E+02
      8.937 -0.2772E-01  0.2175E+02
      9.006 -0.8120E-01  0.2174E+02
      9.075 -0.1543E+00  0.2173E+02
      9.144 -0.1143E+00  0.2172E+02
      9.213  0.3208E+00  0.2175E+02
      9.281  0.1323E+01  0.2184E+02
      9.350  0.2517E+01  0.2201E+02
      9.419  0.3050E+01  0.2222E+02
      9.488  0.2445E+01  0.2239E+02
      9.557  0.1253E+01  0.2248E+02
      9.626  0.5815E+00  0.2252E+02
      9.695  0.1044E+01  0.2259E+02
      9.764  0.2202E+01  0.2274E+02
      9.833  0.2968E+01  0.2294E+02
      9.902  0.2663E+01  0.2313E+02
      9.971  0.1686E+01  0.2324E+02
     10.040  0.9454E+00  0.2331E+02
     10.109  0.8022E+00  0.2336E+02
     10.178  0.8775E+00  0.2342E+02
     10.246  0.7408E+00  0.2348E+02
     10.315  0.3955E+00  0.2350E+02
     10.384  0.9091E-01  0.2351E+02
     10.453 -0.4164E-01  0.2351E+02
     10.522 -0.5113E-01  0.2350E+02
     10.591 -0.2637E-01  0.2350E+02
     10.660 -0.8897E-02  0.2350E+02
     10.729 -0.2159E-02  0.2350E+02
     10.798 -0.3908E-03  0.2350E+02
     10.867 -0.5377E-04  0.2350E+02
     10.936 -0.5684E-05  0.2350E+02
     11.005 -0.4647E-06  0.2350E+02
     11.074 -0.2951E-07  0.2350E+02
     11.143 -0.1461E-08  0.2350E+02
     11.211 -0.5647E-10  0.2350E+02
     11.280 -0.1708E-11  0.2350E+02
     11.349 -0.4027E-13  0.2350E+02
     11.418 -0.8054E-15  0.2350E+02
     11.487  0.0000E+00  0.2350E+02
     11.556  0.0000E+00  0.2350E+02
     11.625  0.0000E+00  0.2350E+02
     11.694  0.0000E+00  0.2350E+02
     11.763  0.0000E+00  0.2350E+02
     11.832  0.0000E+00  0.2350E+02
     11.901  0.0000E+00  0.2350E+02
     11.970 -0.3442E-27  0.2350E+02
     12.039 -0.7661E-25  0.2350E+02
     12.108 -0.1346E-22  0.2350E+02
     12.176 -0.1861E-20  0.2350E+02
     12.245 -0.2022E-18  0.2350E+02
     12.314 -0.1728E-16  0.2350E+02
     12.383 -0.1160E-14  0.2350E+02
     12.452 -0.5932E-13  0.2350E+02
     12.521 -0.2441E-11  0.2350E+02
     12.590 -0.7876E-10  0.2350E+02
     12.659 -0.1988E-08  0.2350E+02
     12.728 -0.3920E-07  0.2350E+02
     12.797 -0.6020E-06  0.2350E+02
     12.866 -0.7181E-05  0.2350E+02
     12.935 -0.6620E-04  0.2350E+02
     13.004 -0.4685E-03  0.2350E+02
     13.072 -0.2517E-02  0.2350E+02
     13.141 -0.1006E-01  0.2350E+02
     13.210 -0.2873E-01  0.2350E+02
     13.279 -0.5257E-01  0.2349E+02
     13.348 -0.3353E-01  0.2349E+02
     13.417  0.1243E+00  0.2350E+02
     13.486  0.4711E+00  0.2353E+02
     13.555  0.8700E+00  0.2359E+02
     13.624  0.1040E+01  0.2366E+02
     13.693  0.8401E+00  0.2372E+02
     13.762  0.4351E+00  0.2375E+02
     13.831  0.1027E+00  0.2376E+02
     13.900 -0.3922E-01  0.2376E+02
     13.969 -0.5109E-01  0.2375E+02
     14.037 -0.2661E-01  0.2375E+02
     14.106 -0.9022E-02  0.2375E+02
     14.175 -0.2197E-02  0.2375E+02
     14.244 -0.3990E-03  0.2375E+02
     14.313 -0.5522E-04  0.2375E+02
     14.382 -0.7842E-05  0.2375E+02
     14.451 -0.2165E-04  0.2375E+02
     14.520 -0.1725E-03  0.2375E+02
     14.589 -0.1074E-02  0.2375E+02
     14.658 -0.5032E-02  0.2375E+02
     14.727 -0.1729E-01  0.2375E+02
     14.796 -0.4092E-01  0.2375E+02
     14.865 -0.5414E-01  0.2374E+02
     14.934  0.1771E-01  0.2374E+02
     15.002  0.2675E+00  0.2376E+02
     15.071  0.6694E+00  0.2381E+02
     15.140  0.9945E+00  0.2388E+02
     15.209  0.9883E+00  0.2394E+02
     15.278  0.6561E+00  0.2399E+02
     15.347  0.2564E+00  0.2401E+02
     15.416  0.1301E-01  0.2401E+02
     15.485 -0.5449E-01  0.2400E+02
     15.554 -0.4008E-01  0.2400E+02
     15.623 -0.1670E-01  0.2400E+02
     15.692 -0.4811E-02  0.2400E+02
     15.761 -0.1017E-02  0.2400E+02
     15.830 -0.1619E-03  0.2400E+02
     15.899 -0.1971E-04  0.2400E+02
     15.967 -0.1850E-05  0.2400E+02
     16.036 -0.1345E-06  0.2400E+02
     16.105 -0.7615E-08  0.2400E+02
     16.174 -0.3363E-09  0.2400E+02
     16.243 -0.1161E-10  0.2400E+02
     16.312 -0.3133E-12  0.2400E+02
     16.381 -0.7248E-14  0.2400E+02
     16.450  0.0000E+00  0.2400E+02
     16.519  0.0000E+00  0.2400E+02
     16.588  0.0000E+00  0.2400E+02
     16.657  0.0000E+00  0.2400E+02
     16.726  0.0000E+00  0.2400E+02
     16.795  0.0000E+00  0.2400E+02
     16.863  0.0000E+00  0.2400E+02
     16.932  0.0000E+00  0.2400E+02
     17.001  0.0000E+00  0.2400E+02
     17.070  0.0000E+00  0.2400E+02
     17.139  0.0000E+00  0.2400E+02
