    2    2    1    1
  0.1097600E+02  0.2800000E-09  0.2800000E-09  0.2800000E-09  0.5000000E-15
  1.000000000000000E-004
  CAR 
 ToDo                                    
     16      4     12
 
  0.1250000E+00  0.1250000E+00  0.1250000E+00  0.1250000E+00
    1       -1.539012   1.000000
    2        2.081490   1.000000
    3        2.081490   1.000000
    4        4.120279   1.000000
    5        4.120279   1.000000
    6        4.993903   1.000000
    7        5.585688   1.008926
    8        5.863696   0.908644
    9        5.863696   0.908644
   10        6.739587  -0.000001
   11        6.739587  -0.000001
   12       15.139208   0.000000
 
  0.3750000E+00  0.1250000E+00  0.1250000E+00  0.3750000E+00
    1        0.591126   1.000000
    2        2.432121   1.000000
    3        2.938254   1.000000
    4        3.803774   1.000000
    5        3.985874   1.000000
    6        4.407158   1.000000
    7        5.287347   1.000006
    8        5.513628   1.002434
    9        5.968222   0.544544
   10        6.443482  -0.002455
   11        6.582347  -0.000084
   12        9.386573  -0.000000
 
  0.3750000E+00  0.3750000E+00  0.1250000E+00  0.3750000E+00
    1        1.492203   1.000000
    2        2.008588   1.000000
    3        3.238202   1.000000
    4        3.422292   1.000000
    5        4.221226   1.000000
    6        4.458355   1.000000
    7        5.721276   1.034902
    8        5.899063   0.809391
    9        6.134203   0.016020
   10        6.781229  -0.000000
   11        7.521234  -0.000000
   12        9.809852  -0.000000
 
  0.3750000E+00  0.3750000E+00  0.3750000E+00  0.1250000E+00
    1        2.693527   1.000000
    2        3.061680   1.000000
    3        3.073196   1.000000
    4        3.073196   1.000000
    5        3.440995   1.000000
    6        3.440995   1.000000
    7        6.146312   0.000919
    8        6.146312   0.000919
    9        6.171859  -0.021163
   10        6.171860  -0.021163
   11       10.139279  -0.000000
   12       13.586428   0.000000
