       N       E                     dE             d eps       ncg     rms          rms(c)
DAV:   1     0.493129290191E+02    0.49313E+02   -0.48567E+03    96   0.921E+02
DAV:   2    -0.186411936969E+02   -0.67954E+02   -0.64008E+02   104   0.232E+02
DAV:   3    -0.208983854951E+02   -0.22572E+01   -0.19855E+01   100   0.512E+01
DAV:   4    -0.209205615297E+02   -0.22176E-01   -0.21754E-01    96   0.520E+00
DAV:   5    -0.209207372223E+02   -0.17569E-03   -0.17549E-03   108   0.430E-01    0.125E+01
RMM:   6    -0.179535752888E+02    0.29672E+01   -0.22561E+01    97   0.709E+01    0.226E+00
RMM:   7    -0.177675658534E+02    0.18601E+00   -0.11182E+00    96   0.183E+01    0.726E-01
RMM:   8    -0.177395240013E+02    0.28042E-01   -0.26293E-02    96   0.126E+00    0.111E-01
RMM:   9    -0.177379501966E+02    0.15738E-02   -0.22815E-03    94   0.787E-01    0.543E-02
RMM:  10    -0.177379867884E+02   -0.36592E-04   -0.39842E-04    66   0.225E-01
   1 F= -.17737987E+02 E0= -.17733170E+02  d E =-.144510E-01
