 vasp.5.4.1 24Jun15 (build Apr 15 2016 18:00:36) complex                        
  
 executed on           IFC91_ompi date 2017.01.05  10:26:31
 serial version


--------------------------------------------------------------------------------------------------------


 INCAR:
 POTCAR:   PAW Fe 03Mar1998                       
 POTCAR:   PAW Fe 03Mar1998                       
   VRHFIN =Fe:  d7 s1                                                           
   LEXCH  = CA                                                                  
   EATOM  =   597.3650 eV,   43.9051 Ry                                         
                                                                                
   TITEL  = PAW Fe 03Mar1998                                                    
   LULTRA =        F    use ultrasoft PP ?                                      
   IUNSCR =        1    unscreen: 0-lin 1-nonlin 2-no                           
   RPACOR =    2.000    partial core radius                                     
   POMASS =   55.847; ZVAL   =    8.000    mass and valenz                      
   RCORE  =    2.300    outmost cutoff radius                                   
   RWIGS  =    2.460; RWIGS  =    1.302    wigner-seitz radius (au A)           
   ENMAX  =  267.969; ENMIN  =  200.977 eV                                      
   RCLOC  =    1.701    cutoff for local pot                                    
   LCOR   =        T    correct aug charges                                     
   LPAW   =        T    paw PP                                                  
   EAUG   =  511.368                                                            
   DEXC   =    -.018                                                            
   RMAX   =    2.817    core radius for proj-oper                               
   RAUG   =    1.300    factor for augmentation sphere                          
   RDEP   =    2.442    core radius for depl-charge                             
   QCUT   =   -4.438; QGAM   =    8.876    optimization parameters              
                                                                                
   Description                                                                  
     l     E      TYP  RCUT    TYP  RCUT                                        
     2   .000     23  2.300                                                     
     2   .000     23  2.300                                                     
     0   .000     23  2.300                                                     
     0   .000     23  2.300                                                     
     1  -.200     23  2.300                                                     
     1   .000     23  2.300                                                     
     3   .000      7   .000                                                     
  local pseudopotential read in
  partial core-charges read in
  atomic valenz-charges read in
  non local Contribution for L=           2  read in
    real space projection operators read in
  non local Contribution for L=           2  read in
    real space projection operators read in
  non local Contribution for L=           0  read in
    real space projection operators read in
  non local Contribution for L=           0  read in
    real space projection operators read in
  non local Contribution for L=           1  read in
    real space projection operators read in
  non local Contribution for L=           1  read in
    real space projection operators read in
    PAW grid and wavefunctions read in
 
   number of l-projection  operators is LMAX  =           6
   number of lm-projection operators is LMMAX =          18
 
 PAW Fe 03Mar1998                       :
 energy of atom  1       EATOM= -597.3650
 kinetic energy error for atom=    0.0664 (will be added to EATOM!!)
 
 
 POSCAR: Poscar file generated with pyCMW        
  positions in direct lattice
  No initial velocities read in
 exchange correlation table for  LEXCH =        2
   RHO(1)=    0.500       N(1)  =     2000
   RHO(2)=  100.500       N(2)  =     4000
 


--------------------------------------------------------------------------------------------------------


 ion  position               nearest neighbor table
   1  0.000  0.000  0.000-   2 2.42   2 2.42   2 2.42   2 2.42   2 2.42   2 2.42   2 2.42   2 2.42

   2  0.500  0.500  0.500-   1 2.42   1 2.42   1 2.42   1 2.42   1 2.42   1 2.42   1 2.42   1 2.42

 
  LATTYP: Found a simple cubic cell.
 ALAT       =     2.8000000000
  
  Lattice vectors:
  
 A1 = (   2.8000000000,   0.0000000000,   0.0000000000)
 A2 = (   0.0000000000,   2.8000000000,   0.0000000000)
 A3 = (   0.0000000000,   0.0000000000,   2.8000000000)


Analysis of symmetry for initial positions (statically):
=====================================================================
 Subroutine PRICEL returns following result:
 
  LATTYP: Found a body centered cubic cell.
 ALAT       =     2.8000000000
  
  Lattice vectors:
  
 A1 = (   1.4000000000,   1.4000000000,   1.4000000000)
 A2 = (   1.4000000000,  -1.4000000000,  -1.4000000000)
 A3 = (  -1.4000000000,   1.4000000000,  -1.4000000000)
 
   2 primitive cells build up your supercell.
 

 Routine SETGRP: Setting up the symmetry group for a 
 simple cubic supercell.


 Subroutine GETGRP returns: Found 48 space group operations
 (whereof 48 operations were pure point group operations)
 out of a pool of 48 trial point group operations.


The static configuration has the point symmetry O_h .


Analysis of symmetry for dynamics (positions and initial velocities):
=====================================================================
 Subroutine PRICEL returns following result:
 
  LATTYP: Found a body centered cubic cell.
 ALAT       =     2.8000000000
  
  Lattice vectors:
  
 A1 = (   1.4000000000,   1.4000000000,   1.4000000000)
 A2 = (   1.4000000000,  -1.4000000000,  -1.4000000000)
 A3 = (  -1.4000000000,   1.4000000000,  -1.4000000000)
 
   2 primitive cells build up your supercell.
 

 Routine SETGRP: Setting up the symmetry group for a 
 simple cubic supercell.


 Subroutine GETGRP returns: Found 48 space group operations
 (whereof 48 operations were pure point group operations)
 out of a pool of 48 trial point group operations.


The dynamic configuration has the point symmetry O_h .


 Subroutine INISYM returns: Found 48 space group operations
 (whereof 48 operations are pure point group operations),
 and found     2 'primitive' translations

 
 
 KPOINTS: Kpoints file generated with pyCMW       

Automatic generation of k-mesh.
Space group operators:
 irot       det(A)        alpha          n_x          n_y          n_z        tau_x        tau_y        tau_z
    1     1.000000     0.000000     1.000000     0.000000     0.000000     0.000000     0.000000     0.000000
    2    -1.000000     0.000000     1.000000     0.000000     0.000000     0.000000     0.000000     0.000000
    3     1.000000   120.000000    -0.577350    -0.577350    -0.577350     0.000000     0.000000     0.000000
    4    -1.000000   120.000000    -0.577350    -0.577350    -0.577350     0.000000     0.000000     0.000000
    5     1.000000   120.000000     0.577350     0.577350     0.577350     0.000000     0.000000     0.000000
    6    -1.000000   120.000000     0.577350     0.577350     0.577350     0.000000     0.000000     0.000000
    7     1.000000    90.000000     0.000000     0.000000    -1.000000     0.000000     0.000000     0.000000
    8    -1.000000    90.000000     0.000000     0.000000    -1.000000     0.000000     0.000000     0.000000
    9     1.000000   180.000000     0.000000     0.707107     0.707107     0.000000     0.000000     0.000000
   10    -1.000000   180.000000     0.000000     0.707107     0.707107     0.000000     0.000000     0.000000
   11     1.000000    90.000000     0.000000     1.000000     0.000000     0.000000     0.000000     0.000000
   12    -1.000000    90.000000     0.000000     1.000000     0.000000     0.000000     0.000000     0.000000
   13     1.000000   180.000000     0.000000     0.000000     1.000000     0.000000     0.000000     0.000000
   14    -1.000000   180.000000     0.000000     0.000000     1.000000     0.000000     0.000000     0.000000
   15     1.000000   120.000000    -0.577350     0.577350     0.577350     0.000000     0.000000     0.000000
   16    -1.000000   120.000000    -0.577350     0.577350     0.577350     0.000000     0.000000     0.000000
   17     1.000000   120.000000    -0.577350     0.577350    -0.577350     0.000000     0.000000     0.000000
   18    -1.000000   120.000000    -0.577350     0.577350    -0.577350     0.000000     0.000000     0.000000
   19     1.000000    90.000000     0.000000     0.000000     1.000000     0.000000     0.000000     0.000000
   20    -1.000000    90.000000     0.000000     0.000000     1.000000     0.000000     0.000000     0.000000
   21     1.000000    90.000000    -1.000000     0.000000     0.000000     0.000000     0.000000     0.000000
   22    -1.000000    90.000000    -1.000000     0.000000     0.000000     0.000000     0.000000     0.000000
   23     1.000000   180.000000     0.707107     0.000000     0.707107     0.000000     0.000000     0.000000
   24    -1.000000   180.000000     0.707107     0.000000     0.707107     0.000000     0.000000     0.000000
   25     1.000000   120.000000     0.577350    -0.577350     0.577350     0.000000     0.000000     0.000000
   26    -1.000000   120.000000     0.577350    -0.577350     0.577350     0.000000     0.000000     0.000000
   27     1.000000   120.000000    -0.577350    -0.577350     0.577350     0.000000     0.000000     0.000000
   28    -1.000000   120.000000    -0.577350    -0.577350     0.577350     0.000000     0.000000     0.000000
   29     1.000000   180.000000     1.000000     0.000000     0.000000     0.000000     0.000000     0.000000
   30    -1.000000   180.000000     1.000000     0.000000     0.000000     0.000000     0.000000     0.000000
   31     1.000000    90.000000     0.000000    -1.000000     0.000000     0.000000     0.000000     0.000000
   32    -1.000000    90.000000     0.000000    -1.000000     0.000000     0.000000     0.000000     0.000000
   33     1.000000   180.000000     0.707107     0.707107     0.000000     0.000000     0.000000     0.000000
   34    -1.000000   180.000000     0.707107     0.707107     0.000000     0.000000     0.000000     0.000000
   35     1.000000    90.000000     1.000000     0.000000     0.000000     0.000000     0.000000     0.000000
   36    -1.000000    90.000000     1.000000     0.000000     0.000000     0.000000     0.000000     0.000000
   37     1.000000   120.000000     0.577350    -0.577350    -0.577350     0.000000     0.000000     0.000000
   38    -1.000000   120.000000     0.577350    -0.577350    -0.577350     0.000000     0.000000     0.000000
   39     1.000000   180.000000     0.000000     1.000000     0.000000     0.000000     0.000000     0.000000
   40    -1.000000   180.000000     0.000000     1.000000     0.000000     0.000000     0.000000     0.000000
   41     1.000000   120.000000     0.577350     0.577350    -0.577350     0.000000     0.000000     0.000000
   42    -1.000000   120.000000     0.577350     0.577350    -0.577350     0.000000     0.000000     0.000000
   43     1.000000   180.000000     0.000000    -0.707107     0.707107     0.000000     0.000000     0.000000
   44    -1.000000   180.000000     0.000000    -0.707107     0.707107     0.000000     0.000000     0.000000
   45     1.000000   180.000000     0.707107    -0.707107     0.000000     0.000000     0.000000     0.000000
   46    -1.000000   180.000000     0.707107    -0.707107     0.000000     0.000000     0.000000     0.000000
   47     1.000000   180.000000     0.707107     0.000000    -0.707107     0.000000     0.000000     0.000000
   48    -1.000000   180.000000     0.707107     0.000000    -0.707107     0.000000     0.000000     0.000000
 
 Subroutine IBZKPT returns following result:
 ===========================================
 
 Found      4 irreducible k-points:
 
 Following reciprocal coordinates:
            Coordinates               Weight
  0.125000  0.125000  0.125000      8.000000
  0.375000  0.125000  0.125000     24.000000
  0.375000  0.375000  0.125000     24.000000
  0.375000  0.375000  0.375000      8.000000
 
 Following cartesian coordinates:
            Coordinates               Weight
  0.044643  0.044643  0.044643      8.000000
  0.133929  0.044643  0.044643     24.000000
  0.133929  0.133929  0.044643     24.000000
  0.133929  0.133929  0.133929      8.000000
 


--------------------------------------------------------------------------------------------------------




 Dimension of arrays:
   k-points           NKPTS =      4   k-points in BZ     NKDIM =      4   number of bands    NBANDS=     12
   number of dos      NEDOS =    301   number of ions     NIONS =      2
   non local maximal  LDIM  =      6   non local SUM 2l+1 LMDIM =     18
   total plane-waves  NPLWV =   2744
   max r-space proj   IRMAX =      1   max aug-charges    IRDMAX=   4652
   dimension x,y,z NGX =    14 NGY =   14 NGZ =   14
   dimension x,y,z NGXF=    28 NGYF=   28 NGZF=   28
   support grid    NGXF=    28 NGYF=   28 NGZF=   28
   ions per type =               2
 NGX,Y,Z   is equivalent  to a cutoff of   8.31,  8.31,  8.31 a.u.
 NGXF,Y,Z  is equivalent  to a cutoff of  16.62, 16.62, 16.62 a.u.


 I would recommend the setting:
   dimension x,y,z NGX =    14 NGY =   14 NGZ =   14
 SYSTEM =  ToDo                                    
 POSCAR =  Poscar file generated with pyCMW        

 Startparameter for this run:
   NWRITE =      2    write-flag & timer
   PREC   = accura    normal or accurate (medium, high low for compatibility)
   ISTART =      0    job   : 0-new  1-cont  2-samecut
   ICHARG =      2    charge: 1-file 2-atom 10-const
   ISPIN  =      1    spin polarized calculation?
   LNONCOLLINEAR =      F non collinear calculations
   LSORBIT =      F    spin-orbit coupling
   INIWAV =      1    electr: 0-lowe 1-rand  2-diag
   LASPH  =      F    aspherical Exc in radial PAW
   METAGGA=      F    non-selfconsistent MetaGGA calc.

 Electronic Relaxation 1
   ENCUT  =  250.0 eV  18.37 Ry    4.29 a.u.   3.61  3.61  3.61*2*pi/ulx,y,z
   ENINI  =  250.0     initial cutoff
   ENAUG  =  511.4 eV  augmentation charge cutoff
   NELM   =     60;   NELMIN=  2; NELMDL= -5     # of ELM steps 
   EDIFF  = 0.1E-03   stopping-criterion for ELM
   LREAL  =      F    real-space projection
   NLSPLINE    = F    spline interpolate recip. space projectors
   LCOMPAT=      F    compatible to vasp.4.4
   GGA_COMPAT  = T    GGA compatible to vasp.4.4-vasp.4.6
   LMAXPAW     = -100 max onsite density
   LMAXMIX     =    2 max onsite mixed and CHGCAR
   VOSKOWN=      0    Vosko Wilk Nusair interpolation
   ROPT   =    0.00000
 Ionic relaxation
   EDIFFG = 0.1E-02   stopping-criterion for IOM
   NSW    =      0    number of steps for IOM
   NBLOCK =      1;   KBLOCK =      1    inner block; outer block 
   IBRION =     -1    ionic relax: 0-MD 1-quasi-New 2-CG
   NFREE  =      0    steps in history (QN), initial steepest desc. (CG)
   ISIF   =      2    stress and relaxation
   IWAVPR =      0    prediction:  0-non 1-charg 2-wave 3-comb
   ISYM   =      2    0-nonsym 1-usesym 2-fastsym
   LCORR  =      T    Harris-Foulkes like correction to forces

   POTIM  = 0.5000    time-step for ionic-motion
   TEIN   =    0.0    initial temperature
   TEBEG  =    0.0;   TEEND  =   0.0 temperature during run
   SMASS  =  -3.00    Nose mass-parameter (am)
   estimated Nose-frequenzy (Omega)   =  0.10E-29 period in steps =****** mass=  -0.179E-27a.u.
   SCALEE = 1.0000    scale energy and forces
   NPACO  =    256;   APACO  = 16.0  distance and # of slots for P.C.
   PSTRESS=    0.0 pullay stress

  Mass of Ions in am
   POMASS =  55.85
  Ionic Valenz
   ZVAL   =   8.00
  Atomic Wigner-Seitz radii
   RWIGS  =  -1.00
  virtual crystal weights 
   VCA    =   1.00
   NELECT =      16.0000    total number of electrons
   NUPDOWN=      -1.0000    fix difference up-down

 DOS related values:
   EMIN   =  10.00;   EMAX   =-10.00  energy-range for DOS
   EFERMI =   0.00
   ISMEAR =     1;   SIGMA  =   0.20  broadening in eV -4-tet -1-fermi 0-gaus

 Electronic relaxation 2 (details)
   IALGO  =     68    algorithm
   LDIAG  =      T    sub-space diagonalisation (order eigenvalues)
   LSUBROT=      F    optimize rotation matrix (better conditioning)
   TURBO    =      0    0=normal 1=particle mesh
   IRESTART =      0    0=no restart 2=restart with 2 vectors
   NREBOOT  =      0    no. of reboots
   NMIN     =      0    reboot dimension
   EREF     =   0.00    reference energy to select bands
   IMIX   =      4    mixing-type and parameters
     AMIX     =   0.40;   BMIX     =  1.00
     AMIX_MAG =   1.60;   BMIX_MAG =  1.00
     AMIN     =   0.10
     WC   =   100.;   INIMIX=   1;  MIXPRE=   1;  MAXMIX= -45

 Intra band minimization:
   WEIMIN = 0.0000     energy-eigenvalue tresh-hold
   EBREAK =  0.21E-05  absolut break condition
   DEPER  =   0.30     relativ break condition  

   TIME   =   0.40     timestep for ELM

  volume/ion in A,a.u.               =      10.98        74.07
  Fermi-wavevector in a.u.,A,eV,Ry     =   1.473296  2.784126 29.532837  2.170602
  Thomas-Fermi vector in A             =   2.588207
 
 Write flags
   LWAVE  =      T    write WAVECAR
   LCHARG =      T    write CHGCAR
   LVTOT  =      F    write LOCPOT, total local potential
   LVHAR  =      F    write LOCPOT, Hartree potential only
   LELF   =      F    write electronic localiz. function (ELF)
   LORBIT =      0    0 simple, 1 ext, 2 COOP (PROOUT)


 Dipole corrections
   LMONO  =      F    monopole corrections only (constant potential shift)
   LDIPOL =      F    correct potential (dipole corrections)
   IDIPOL =      0    1-x, 2-y, 3-z, 4-all directions 
   EPSILON=  1.0000000 bulk dielectric constant

 Exchange correlation treatment:
   GGA     =    --    GGA type
   LEXCH   =     2    internal setting for exchange type
   VOSKOWN=      0    Vosko Wilk Nusair interpolation
   LHFCALC =     F    Hartree Fock is set to
   LHFONE  =     F    Hartree Fock one center treatment
   AEXX    =    0.0000 exact exchange contribution

 Linear response parameters
   LEPSILON=     F    determine dielectric tensor
   LRPA    =     F    only Hartree local field effects (RPA)
   LNABLA  =     F    use nabla operator in PAW spheres
   LVEL    =     F    velocity operator in full k-point grid
   LINTERFAST=   F  fast interpolation
   KINTER  =     0    interpolate to denser k-point grid
   CSHIFT  =0.1000    complex shift for real part using Kramers Kronig
   OMEGAMAX=  -1.0    maximum frequency
   DEG_THRESHOLD= 0.2000000E-02 threshold for treating states as degnerate
   RTIME   =    0.100 relaxation time in fs

 Orbital magnetization related:
   ORBITALMAG=     F  switch on orbital magnetization
   LCHIMAG   =     F  perturbation theory with respect to B field
   DQ        =  0.001000  dq finite difference perturbation B field



--------------------------------------------------------------------------------------------------------


 Static calculation
 charge density and potential will be updated during run
 non-spin polarized calculation
 RMM-DIIS sequential band-by-band and
  variant of blocked Davidson during initial phase
 perform sub-space diagonalisation
    before iterative eigenvector-optimisation
 modified Broyden-mixing scheme, WC =      100.0
 initial mixing is a Kerker type mixing with AMIX =  0.4000 and BMIX =      1.0000
 Hartree-type preconditioning will be used
 using additional bands            4
 reciprocal scheme for non local part
 use partial core corrections
 calculate Harris-corrections to forces 
   (improved forces if not selfconsistent)
 use of overlap-Matrix (Vanderbilt PP)
 Methfessel and Paxton  Order N= 1 SIGMA  =   0.20


--------------------------------------------------------------------------------------------------------


  energy-cutoff  :      250.00
  volume of cell :       21.95
      direct lattice vectors                 reciprocal lattice vectors
     2.800000000  0.000000000  0.000000000     0.357142857  0.000000000  0.000000000
     0.000000000  2.800000000  0.000000000     0.000000000  0.357142857  0.000000000
     0.000000000  0.000000000  2.800000000     0.000000000  0.000000000  0.357142857

  length of vectors
     2.800000000  2.800000000  2.800000000     0.357142857  0.357142857  0.357142857


 
 k-points in units of 2pi/SCALE and weight: Kpoints file generated with pyCMW       
   0.04464286  0.04464286  0.04464286       0.125
   0.13392857  0.04464286  0.04464286       0.375
   0.13392857  0.13392857  0.04464286       0.375
   0.13392857  0.13392857  0.13392857       0.125
 
 k-points in reciprocal lattice and weights: Kpoints file generated with pyCMW       
   0.12500000  0.12500000  0.12500000       0.125
   0.37500000  0.12500000  0.12500000       0.375
   0.37500000  0.37500000  0.12500000       0.375
   0.37500000  0.37500000  0.37500000       0.125
 
 position of ions in fractional coordinates (direct lattice) 
   0.00000000  0.00000000  0.00000000
   0.50000000  0.50000000  0.50000000
 
 position of ions in cartesian coordinates  (Angst):
   0.00000000  0.00000000  0.00000000
   1.40000000  1.40000000  1.40000000
 


--------------------------------------------------------------------------------------------------------


 k-point  1 :   0.1250 0.1250 0.1250  plane waves:     196
 k-point  2 :   0.3750 0.1250 0.1250  plane waves:     199
 k-point  3 :   0.3750 0.3750 0.1250  plane waves:     196
 k-point  4 :   0.3750 0.3750 0.3750  plane waves:     190

 maximum number of plane-waves:       199
 maximum index in each direction: 
   IXMAX=    3   IYMAX=    3   IZMAX=    3
   IXMIN=   -3   IYMIN=   -3   IZMIN=   -3

 NGX is ok and might be reduce to  14
 NGY is ok and might be reduce to  14
 NGZ is ok and might be reduce to  14

 total amount of memory used by VASP on root node    31547. kBytes
========================================================================

   base      :      30000. kBytes
   nonl-proj :        120. kBytes
   grid      :       1216. kBytes
   one-center:         31. kBytes
   wavefun   :        180. kBytes
 
     INWAV:  cpu time    0.0000: real time    0.0000
 Broyden mixing: mesh for mixing (old mesh)
   NGX =  7   NGY =  7   NGZ =  7
  (NGX  = 28   NGY  = 28   NGZ  = 28)
  gives a total of    343 points

 initial charge density was supplied:
 charge density of overlapping atoms calculated
 number of electron      16.0000000 magnetization 
 keeping initial charge density in first step


--------------------------------------------------------------------------------------------------------


 Maximum index for augmentation-charges         4385 (set IRDMAX)


--------------------------------------------------------------------------------------------------------


 First call to EWALD:  gamma=   0.633
 Maximum number of real-space cells 3x 3x 3
 Maximum number of reciprocal cells 3x 3x 3

    FEWALD:  cpu time    0.0011: real time    0.0011


----------------------------------------- Iteration    1(   1)  ---------------------------------------


    POTLOK:  cpu time    0.0041: real time    0.0021
    SETDIJ:  cpu time    0.0078: real time    0.0038
     EDDAV:  cpu time    0.0370: real time    0.0198
       DOS:  cpu time    0.0002: real time    0.0002
    --------------------------------------------
      LOOP:  cpu time    0.0516: real time    0.0266

 eigenvalue-minimisations  :    96
 total energy-change (2. order) : 0.4931293E+02  (-0.4856732E+03)
 number of electron      16.0000000 magnetization 
 augmentation part       16.0000000 magnetization 

 Free energy of the ion-electron system (eV)
  ---------------------------------------------------
  alpha Z        PSCENC =       122.02745190
  Ewald energy   TEWEN  =     -1197.80999809
  -Hartree energ DENC   =      -216.86274298
  -exchange      EXHF   =         0.00000000
  -V(xc)+E(xc)   XCENC  =         9.07895932
  PAW double counting   =       958.19798724     -976.76933593
  entropy T*S    EENTRO =        -0.00457027
  eigenvalues    EBANDS =       156.85794188
  atomic energy  EATOM  =      1194.59723597
  Solvation  Ediel_sol  =         0.00000000
  ---------------------------------------------------
  free energy    TOTEN  =        49.31292902 eV

  energy without entropy =       49.31749929  energy(sigma->0) =       49.31445244


--------------------------------------------------------------------------------------------------------




----------------------------------------- Iteration    1(   2)  ---------------------------------------


     EDDAV:  cpu time    0.0373: real time    0.0193
       DOS:  cpu time    0.0002: real time    0.0002
    --------------------------------------------
      LOOP:  cpu time    0.0408: real time    0.0200

 eigenvalue-minimisations  :   104
 total energy-change (2. order) :-0.6795412E+02  (-0.6400828E+02)
 number of electron      16.0000000 magnetization 
 augmentation part       16.0000000 magnetization 

 Free energy of the ion-electron system (eV)
  ---------------------------------------------------
  alpha Z        PSCENC =       122.02745190
  Ewald energy   TEWEN  =     -1197.80999809
  -Hartree energ DENC   =      -216.86274298
  -exchange      EXHF   =         0.00000000
  -V(xc)+E(xc)   XCENC  =         9.07895932
  PAW double counting   =       958.19798724     -976.76933593
  entropy T*S    EENTRO =        -0.01012185
  eigenvalues    EBANDS =        88.90937073
  atomic energy  EATOM  =      1194.59723597
  Solvation  Ediel_sol  =         0.00000000
  ---------------------------------------------------
  free energy    TOTEN  =       -18.64119370 eV

  energy without entropy =      -18.63107185  energy(sigma->0) =      -18.63781975


--------------------------------------------------------------------------------------------------------




----------------------------------------- Iteration    1(   3)  ---------------------------------------


     EDDAV:  cpu time    0.0316: real time    0.0186
       DOS:  cpu time    0.0002: real time    0.0002
    --------------------------------------------
      LOOP:  cpu time    0.0322: real time    0.0192

 eigenvalue-minimisations  :   100
 total energy-change (2. order) :-0.2257192E+01  (-0.1985538E+01)
 number of electron      16.0000000 magnetization 
 augmentation part       16.0000000 magnetization 

 Free energy of the ion-electron system (eV)
  ---------------------------------------------------
  alpha Z        PSCENC =       122.02745190
  Ewald energy   TEWEN  =     -1197.80999809
  -Hartree energ DENC   =      -216.86274298
  -exchange      EXHF   =         0.00000000
  -V(xc)+E(xc)   XCENC  =         9.07895932
  PAW double counting   =       958.19798724     -976.76933593
  entropy T*S    EENTRO =        -0.01197862
  eigenvalues    EBANDS =        86.65403571
  atomic energy  EATOM  =      1194.59723597
  Solvation  Ediel_sol  =         0.00000000
  ---------------------------------------------------
  free energy    TOTEN  =       -20.89838550 eV

  energy without entropy =      -20.88640688  energy(sigma->0) =      -20.89439262


--------------------------------------------------------------------------------------------------------




----------------------------------------- Iteration    1(   4)  ---------------------------------------


     EDDAV:  cpu time    0.0556: real time    0.0289
       DOS:  cpu time    0.0002: real time    0.0002
    --------------------------------------------
      LOOP:  cpu time    0.0643: real time    0.0295

 eigenvalue-minimisations  :    96
 total energy-change (2. order) :-0.2217603E-01  (-0.2175369E-01)
 number of electron      16.0000000 magnetization 
 augmentation part       16.0000000 magnetization 

 Free energy of the ion-electron system (eV)
  ---------------------------------------------------
  alpha Z        PSCENC =       122.02745190
  Ewald energy   TEWEN  =     -1197.80999809
  -Hartree energ DENC   =      -216.86274298
  -exchange      EXHF   =         0.00000000
  -V(xc)+E(xc)   XCENC  =         9.07895932
  PAW double counting   =       958.19798724     -976.76933593
  entropy T*S    EENTRO =        -0.00808855
  eigenvalues    EBANDS =        86.62796960
  atomic energy  EATOM  =      1194.59723597
  Solvation  Ediel_sol  =         0.00000000
  ---------------------------------------------------
  free energy    TOTEN  =       -20.92056153 eV

  energy without entropy =      -20.91247298  energy(sigma->0) =      -20.91786535


--------------------------------------------------------------------------------------------------------




----------------------------------------- Iteration    1(   5)  ---------------------------------------


     EDDAV:  cpu time    0.0439: real time    0.0225
       DOS:  cpu time    0.0002: real time    0.0002
    CHARGE:  cpu time    0.0045: real time    0.0045
    MIXING:  cpu time    0.0074: real time    0.0003
    --------------------------------------------
      LOOP:  cpu time    0.0566: real time    0.0281

 eigenvalue-minimisations  :   108
 total energy-change (2. order) :-0.1756925E-03  (-0.1754872E-03)
 number of electron      16.0000115 magnetization 
 augmentation part        7.0762407 magnetization 

 Broyden mixing:
  rms(total) = 0.12544E+01    rms(broyden)= 0.12517E+01
  rms(prec ) = 0.37115E+01
  weight for this iteration     100.00

 Free energy of the ion-electron system (eV)
  ---------------------------------------------------
  alpha Z        PSCENC =       122.02745190
  Ewald energy   TEWEN  =     -1197.80999809
  -Hartree energ DENC   =      -216.86274298
  -exchange      EXHF   =         0.00000000
  -V(xc)+E(xc)   XCENC  =         9.07895932
  PAW double counting   =       958.19798724     -976.76933593
  entropy T*S    EENTRO =        -0.00805834
  eigenvalues    EBANDS =        86.62776370
  atomic energy  EATOM  =      1194.59723597
  Solvation  Ediel_sol  =         0.00000000
  ---------------------------------------------------
  free energy    TOTEN  =       -20.92073722 eV

  energy without entropy =      -20.91267888  energy(sigma->0) =      -20.91805111


--------------------------------------------------------------------------------------------------------




----------------------------------------- Iteration    1(   6)  ---------------------------------------


    POTLOK:  cpu time    0.0019: real time    0.0019
    SETDIJ:  cpu time    0.0070: real time    0.0029
    EDDIAG:  cpu time    0.0068: real time    0.0049
  RMM-DIIS:  cpu time    0.0340: real time    0.0155
    ORTHCH:  cpu time    0.0002: real time    0.0002
       DOS:  cpu time    0.0002: real time    0.0002
    CHARGE:  cpu time    0.0098: real time    0.0043
    MIXING:  cpu time    0.0004: real time    0.0004
    --------------------------------------------
      LOOP:  cpu time    0.0609: real time    0.0307

 eigenvalue-minimisations  :    97
 total energy-change (2. order) : 0.2967162E+01  (-0.2256085E+01)
 number of electron      16.0000157 magnetization 
 augmentation part        8.4758993 magnetization 

 Broyden mixing:
  rms(total) = 0.22573E+00    rms(broyden)= 0.22501E+00
  rms(prec ) = 0.58164E+00
  weight for this iteration     100.00

 eigenvalues of (default mixing * dielectric matrix)
  average eigenvalue GAMMA=   0.8547
  0.8547

 Free energy of the ion-electron system (eV)
  ---------------------------------------------------
  alpha Z        PSCENC =       122.02745190
  Ewald energy   TEWEN  =     -1197.80999809
  -Hartree energ DENC   =      -181.84156398
  -exchange      EXHF   =         0.00000000
  -V(xc)+E(xc)   XCENC  =         7.15361013
  PAW double counting   =       955.56022742     -969.03608038
  entropy T*S    EENTRO =        -0.01912178
  eigenvalues    EBANDS =        51.41466354
  atomic energy  EATOM  =      1194.59723597
  Solvation  Ediel_sol  =         0.00000000
  ---------------------------------------------------
  free energy    TOTEN  =       -17.95357529 eV

  energy without entropy =      -17.93445351  energy(sigma->0) =      -17.94720136


--------------------------------------------------------------------------------------------------------




----------------------------------------- Iteration    1(   7)  ---------------------------------------


    POTLOK:  cpu time    0.0019: real time    0.0019
    SETDIJ:  cpu time    0.0029: real time    0.0029
    EDDIAG:  cpu time    0.0151: real time    0.0051
  RMM-DIIS:  cpu time    0.0298: real time    0.0152
    ORTHCH:  cpu time    0.0002: real time    0.0002
       DOS:  cpu time    0.0002: real time    0.0002
    CHARGE:  cpu time    0.0098: real time    0.0045
    MIXING:  cpu time    0.0004: real time    0.0004
    --------------------------------------------
      LOOP:  cpu time    0.0615: real time    0.0310

 eigenvalue-minimisations  :    96
 total energy-change (2. order) : 0.1860094E+00  (-0.1118247E+00)
 number of electron      16.0000146 magnetization 
 augmentation part        8.1915144 magnetization 

 Broyden mixing:
  rms(total) = 0.72573E-01    rms(broyden)= 0.72027E-01
  rms(prec ) = 0.20552E+00
  weight for this iteration     100.00

 eigenvalues of (default mixing * dielectric matrix)
  average eigenvalue GAMMA=   1.3429
  0.8010  1.8849

 Free energy of the ion-electron system (eV)
  ---------------------------------------------------
  alpha Z        PSCENC =       122.02745190
  Ewald energy   TEWEN  =     -1197.80999809
  -Hartree energ DENC   =      -186.23774919
  -exchange      EXHF   =         0.00000000
  -V(xc)+E(xc)   XCENC  =         7.41702360
  PAW double counting   =       991.00243969    -1008.00312230
  entropy T*S    EENTRO =        -0.01392144
  eigenvalues    EBANDS =        59.25307402
  atomic energy  EATOM  =      1194.59723597
  Solvation  Ediel_sol  =         0.00000000
  ---------------------------------------------------
  free energy    TOTEN  =       -17.76756585 eV

  energy without entropy =      -17.75364441  energy(sigma->0) =      -17.76292537


--------------------------------------------------------------------------------------------------------




----------------------------------------- Iteration    1(   8)  ---------------------------------------


    POTLOK:  cpu time    0.0019: real time    0.0019
    SETDIJ:  cpu time    0.0076: real time    0.0029
    EDDIAG:  cpu time    0.0074: real time    0.0049
  RMM-DIIS:  cpu time    0.0346: real time    0.0154
    ORTHCH:  cpu time    0.0003: real time    0.0002
       DOS:  cpu time    0.0004: real time    0.0002
    CHARGE:  cpu time    0.0086: real time    0.0043
    MIXING:  cpu time    0.0007: real time    0.0003
    --------------------------------------------
      LOOP:  cpu time    0.0621: real time    0.0307

 eigenvalue-minimisations  :    96
 total energy-change (2. order) : 0.2804185E-01  (-0.2629329E-02)
 number of electron      16.0000148 magnetization 
 augmentation part        8.2247591 magnetization 

 Broyden mixing:
  rms(total) = 0.11139E-01    rms(broyden)= 0.11059E-01
  rms(prec ) = 0.23323E-01
  weight for this iteration     100.00

 eigenvalues of (default mixing * dielectric matrix)
  average eigenvalue GAMMA=   1.3947
  0.8001  1.0945  2.2896

 Free energy of the ion-electron system (eV)
  ---------------------------------------------------
  alpha Z        PSCENC =       122.02745190
  Ewald energy   TEWEN  =     -1197.80999809
  -Hartree energ DENC   =      -183.67003558
  -exchange      EXHF   =         0.00000000
  -V(xc)+E(xc)   XCENC  =         7.29768906
  PAW double counting   =      1029.65885543    -1048.83187942
  entropy T*S    EENTRO =        -0.01455316
  eigenvalues    EBANDS =        59.00570989
  atomic energy  EATOM  =      1194.59723597
  Solvation  Ediel_sol  =         0.00000000
  ---------------------------------------------------
  free energy    TOTEN  =       -17.73952400 eV

  energy without entropy =      -17.72497084  energy(sigma->0) =      -17.73467295


--------------------------------------------------------------------------------------------------------




----------------------------------------- Iteration    1(   9)  ---------------------------------------


    POTLOK:  cpu time    0.0039: real time    0.0020
    SETDIJ:  cpu time    0.0056: real time    0.0028
    EDDIAG:  cpu time    0.0097: real time    0.0048
  RMM-DIIS:  cpu time    0.0313: real time    0.0159
    ORTHCH:  cpu time    0.0004: real time    0.0002
       DOS:  cpu time    0.0004: real time    0.0002
    CHARGE:  cpu time    0.0093: real time    0.0048
    MIXING:  cpu time    0.0008: real time    0.0004
    --------------------------------------------
      LOOP:  cpu time    0.0626: real time    0.0317

 eigenvalue-minimisations  :    94
 total energy-change (2. order) : 0.1573805E-02  (-0.2281538E-03)
 number of electron      16.0000148 magnetization 
 augmentation part        8.2178034 magnetization 

 Broyden mixing:
  rms(total) = 0.54271E-02    rms(broyden)= 0.54189E-02
  rms(prec ) = 0.11990E-01
  weight for this iteration     100.00

 eigenvalues of (default mixing * dielectric matrix)
  average eigenvalue GAMMA=   1.5681
  2.7441  0.7887  0.9817  1.7579

 Free energy of the ion-electron system (eV)
  ---------------------------------------------------
  alpha Z        PSCENC =       122.02745190
  Ewald energy   TEWEN  =     -1197.80999809
  -Hartree energ DENC   =      -183.23989045
  -exchange      EXHF   =         0.00000000
  -V(xc)+E(xc)   XCENC  =         7.27956896
  PAW double counting   =      1042.96120361    -1062.75414451
  entropy T*S    EENTRO =        -0.01434325
  eigenvalues    EBANDS =        59.21496568
  atomic energy  EATOM  =      1194.59723597
  Solvation  Ediel_sol  =         0.00000000
  ---------------------------------------------------
  free energy    TOTEN  =       -17.73795020 eV

  energy without entropy =      -17.72360695  energy(sigma->0) =      -17.73316911


--------------------------------------------------------------------------------------------------------




----------------------------------------- Iteration    1(  10)  ---------------------------------------


    POTLOK:  cpu time    0.0039: real time    0.0020
    SETDIJ:  cpu time    0.0055: real time    0.0028
    EDDIAG:  cpu time    0.0097: real time    0.0049
  RMM-DIIS:  cpu time    0.0224: real time    0.0113
    ORTHCH:  cpu time    0.0003: real time    0.0002
       DOS:  cpu time    0.0004: real time    0.0002
    --------------------------------------------
      LOOP:  cpu time    0.0432: real time    0.0217

 eigenvalue-minimisations  :    66
 total energy-change (2. order) :-0.3659176E-04  (-0.3984233E-04)
 number of electron      16.0000148 magnetization 
 augmentation part        8.2178034 magnetization 

 Free energy of the ion-electron system (eV)
  ---------------------------------------------------
  alpha Z        PSCENC =       122.02745190
  Ewald energy   TEWEN  =     -1197.80999809
  -Hartree energ DENC   =      -183.02825753
  -exchange      EXHF   =         0.00000000
  -V(xc)+E(xc)   XCENC  =         7.26888332
  PAW double counting   =      1047.22513364    -1067.05569416
  entropy T*S    EENTRO =        -0.01445097
  eigenvalues    EBANDS =        59.05170914
  atomic energy  EATOM  =      1194.59723597
  Solvation  Ediel_sol  =         0.00000000
  ---------------------------------------------------
  free energy    TOTEN  =       -17.73798679 eV

  energy without entropy =      -17.72353582  energy(sigma->0) =      -17.73316980


--------------------------------------------------------------------------------------------------------




 average (electrostatic) potential at core
  the test charge radii are     1.0103
  (the norm of the test charge is              1.0000)
       1 -43.9090       2 -43.9090
 
 
 
 E-fermi :   5.9788     XC(G=0): -13.6458     alpha+bet :-14.0459


 k-point     1 :       0.1250    0.1250    0.1250
  band No.  band energies     occupation 
      1      -1.5390      2.00000
      2       2.0815      2.00000
      3       2.0815      2.00000
      4       4.1203      2.00000
      5       4.1203      2.00000
      6       4.9939      2.00000
      7       5.5857      2.01785
      8       5.8637      1.81729
      9       5.8637      1.81729
     10       6.7396     -0.00000
     11       6.7396     -0.00000
     12      15.1392      0.00000

 k-point     2 :       0.3750    0.1250    0.1250
  band No.  band energies     occupation 
      1       0.5911      2.00000
      2       2.4321      2.00000
      3       2.9383      2.00000
      4       3.8038      2.00000
      5       3.9859      2.00000
      6       4.4072      2.00000
      7       5.2873      2.00001
      8       5.5136      2.00487
      9       5.9682      1.08909
     10       6.4435     -0.00491
     11       6.5823     -0.00017
     12       9.3866     -0.00000

 k-point     3 :       0.3750    0.3750    0.1250
  band No.  band energies     occupation 
      1       1.4922      2.00000
      2       2.0086      2.00000
      3       3.2382      2.00000
      4       3.4223      2.00000
      5       4.2212      2.00000
      6       4.4584      2.00000
      7       5.7213      2.06980
      8       5.8991      1.61878
      9       6.1342      0.03204
     10       6.7812     -0.00000
     11       7.5212     -0.00000
     12       9.8099     -0.00000

 k-point     4 :       0.3750    0.3750    0.3750
  band No.  band energies     occupation 
      1       2.6935      2.00000
      2       3.0617      2.00000
      3       3.0732      2.00000
      4       3.0732      2.00000
      5       3.4410      2.00000
      6       3.4410      2.00000
      7       6.1463      0.00184
      8       6.1463      0.00184
      9       6.1719     -0.04233
     10       6.1719     -0.04233
     11      10.1393     -0.00000
     12      13.5864      0.00000


--------------------------------------------------------------------------------------------------------


 soft charge-density along one line, spin component           1
         0         1         2         3         4         5         6         7         8         9
x     7.7822    0.0000    0.0000   -0.0000   -0.3457   -0.0000   -0.0000   -0.0000   -0.0016   -0.0000
x     0.0000   -0.0000    0.0015   -0.0000    0.0000    0.0000
y     7.7822    0.0000    0.0000   -0.0000   -0.3457   -0.0000   -0.0000   -0.0000   -0.0016   -0.0000
y     0.0000   -0.0000    0.0015   -0.0000    0.0000    0.0000
z     7.7822    0.0000    0.0000   -0.0000   -0.3457   -0.0000   -0.0000   -0.0000   -0.0016   -0.0000
z     0.0000   -0.0000    0.0015   -0.0000    0.0000    0.0000
 total charge-density along one line
x    16.0000    0.0000   -0.0000    0.0000    3.0761    0.0000   -0.0000    0.0000   -0.0118    0.0000
x     0.0000   -0.0000    0.0028    0.0000    0.0000    0.0000   -0.0011    0.0000   -0.0000   -0.0000
x    -0.0003    0.0000    0.0000   -0.0000    0.0001    0.0000    0.0000   -0.0000    0.0001    0.0000
y    16.0000    0.0000   -0.0000    0.0000    3.0761   -0.0000   -0.0000    0.0000   -0.0118    0.0000
y    -0.0000   -0.0000    0.0028    0.0000    0.0000    0.0000   -0.0011   -0.0000   -0.0000    0.0000
y    -0.0003    0.0000   -0.0000    0.0000    0.0001    0.0000   -0.0000   -0.0000    0.0001    0.0000
z    16.0000    0.0000   -0.0000    0.0000    3.0761    0.0000   -0.0000   -0.0000   -0.0118   -0.0000
z    -0.0000   -0.0000    0.0028   -0.0000   -0.0000   -0.0000   -0.0011   -0.0000   -0.0000   -0.0000
z    -0.0003    0.0000   -0.0000    0.0000    0.0001    0.0000    0.0000   -0.0000    0.0001    0.0000
 
 pseudopotential strength for first ion, spin component:           1
 -4.983  -0.000  -0.000   0.000  -0.000  -0.812   0.000   0.000
 -0.000  -4.983  -0.000  -0.000  -0.000   0.000  -0.812   0.000
 -0.000  -0.000  -5.015  -0.000   0.000   0.000   0.000  -0.802
  0.000  -0.000  -0.000  -4.983  -0.000  -0.000   0.000   0.000
 -0.000  -0.000   0.000  -0.000  -5.015   0.000   0.000  -0.000
 -0.812   0.000   0.000  -0.000   0.000   0.976  -0.000  -0.000
  0.000  -0.812   0.000   0.000   0.000  -0.000   0.976   0.000
  0.000   0.000  -0.802   0.000  -0.000  -0.000   0.000   0.973
 -0.000   0.000   0.000  -0.812   0.000   0.000  -0.000  -0.000
  0.000   0.000  -0.000   0.000  -0.802  -0.000  -0.000   0.000
 -0.000  -0.000   0.000   0.000   0.000  -0.000  -0.000  -0.000
  0.000   0.000  -0.000  -0.000  -0.000  -0.000  -0.000   0.000
  0.000  -0.000   0.000  -0.000   0.000  -0.000   0.000   0.000
 -0.000   0.000  -0.000   0.000   0.000  -0.000  -0.000   0.000
  0.000  -0.000  -0.000   0.000   0.000  -0.000  -0.000   0.000
 -0.000   0.000  -0.000   0.000  -0.000   0.000  -0.000   0.000
  0.000  -0.000   0.000  -0.000  -0.000  -0.000   0.000  -0.000
 -0.000   0.000   0.000  -0.000  -0.000   0.000  -0.000  -0.000
 total augmentation occupancy for first ion, spin component:           1
  1.511  -0.000   0.000  -0.000  -0.000   0.215  -0.000   0.000   0.000   0.000   0.000   0.000   0.000   0.000   0.000   0.000
  0.000   1.511  -0.000  -0.000   0.000  -0.000   0.215   0.000  -0.000   0.000  -0.000   0.000   0.000  -0.000   0.000  -0.000
  0.000  -0.000   1.278   0.000   0.000  -0.000   0.000   0.142   0.000   0.000  -0.000   0.000   0.000   0.000  -0.000   0.000
 -0.000  -0.000  -0.000   1.511   0.000   0.000   0.000   0.000   0.215  -0.000   0.000   0.000   0.000   0.000  -0.000   0.000
  0.000   0.000   0.000  -0.000   1.278  -0.000  -0.000  -0.000   0.000   0.142   0.000  -0.000   0.000  -0.000   0.000   0.000
  0.215  -0.000  -0.000   0.000   0.000   0.127  -0.000  -0.000   0.000   0.000   0.000   0.000   0.000   0.000   0.000  -0.000
 -0.000   0.215  -0.000   0.000   0.000  -0.000   0.127   0.000  -0.000   0.000   0.000   0.000   0.000  -0.000  -0.000  -0.000
  0.000   0.000   0.142  -0.000   0.000   0.000   0.000   0.152   0.000  -0.000  -0.000   0.000   0.000   0.000  -0.000   0.000
  0.000  -0.000   0.000   0.215  -0.000   0.000  -0.000  -0.000   0.127  -0.000  -0.000  -0.000   0.000   0.000   0.000  -0.000
 -0.000  -0.000  -0.000  -0.000   0.142  -0.000   0.000   0.000  -0.000   0.152  -0.000  -0.000  -0.000   0.000   0.000  -0.000
  0.000  -0.000  -0.000  -0.000  -0.000   0.000   0.000  -0.000  -0.000  -0.000   1.442  -0.305  -0.000   0.000  -0.000  -0.000
  0.000   0.000   0.000   0.000  -0.000   0.000   0.000   0.000  -0.000   0.000  -0.305   0.083   0.000   0.000  -0.000  -0.000
  0.000   0.000  -0.000   0.000   0.000   0.000   0.000   0.000   0.000   0.000   0.000   0.000   0.229   0.000   0.000  -0.013
  0.000  -0.000  -0.000   0.000   0.000   0.000  -0.000   0.000   0.000  -0.000   0.000   0.000   0.000   0.229  -0.000   0.000
  0.000   0.000  -0.000  -0.000  -0.000   0.000   0.000   0.000   0.000  -0.000   0.000   0.000   0.000  -0.000   0.229   0.000
  0.000   0.000   0.000   0.000  -0.000  -0.000   0.000   0.000  -0.000   0.000  -0.000   0.000  -0.013  -0.000   0.000   0.001
  0.000  -0.000   0.000   0.000   0.000   0.000   0.000   0.000   0.000   0.000  -0.000   0.000   0.000  -0.013  -0.000  -0.000
  0.000   0.000   0.000  -0.000   0.000  -0.000  -0.000   0.000   0.000   0.000  -0.000   0.000   0.000  -0.000  -0.013  -0.000


------------------------ aborting loop because EDIFF is reached ----------------------------------------


    CHARGE:  cpu time    0.0085: real time    0.0043
    FORLOC:  cpu time    0.0008: real time    0.0004
    FORNL :  cpu time    0.0159: real time    0.0080
    STRESS:  cpu time    0.0459: real time    0.0229
    FORCOR:  cpu time    0.0045: real time    0.0022
    FORHAR:  cpu time    0.0036: real time    0.0018
    MIXING:  cpu time    0.0008: real time    0.0004
    OFIELD:  cpu time    0.0000: real time    0.0000

  FORCE on cell =-STRESS in cart. coord.  units (eV):
  Direction    XX          YY          ZZ          XY          YZ          ZX
  --------------------------------------------------------------------------------------
  Alpha Z   122.02745   122.02745   122.02745
  Ewald    -399.26997  -399.26997  -399.26997     0.00000    -0.00000    -0.00000
  Hartree    61.11091    61.11091    61.11091    -0.00000    -0.00000    -0.00000
  E(xc)     -77.39279   -77.39279   -77.39279    -0.00000     0.00000     0.00000
  Local     119.10857   119.10857   119.10857    -0.00000     0.00000    -0.00000
  n-local   -57.64522   -54.35945   -55.66599     1.77421     0.92771     0.78134
  augment    75.50251    75.50251    75.50251    -0.00000     0.00000     0.00000
  Kinetic   147.49899   149.76693   150.98946     5.42199    -1.44177     1.12245
  Fock        0.00000     0.00000     0.00000     0.00000     0.00000     0.00000
  -------------------------------------------------------------------------------------
  Total      -5.38507    -5.38507    -5.38507     0.00000     0.00000     0.00000
  in kB    -393.03200  -393.03200  -393.03200     0.00000     0.00000     0.00000
  external pressure =     -393.03 kB  Pullay stress =        0.00 kB


 VOLUME and BASIS-vectors are now :
 -----------------------------------------------------------------------------
  energy-cutoff  :      250.00
  volume of cell :       21.95
      direct lattice vectors                 reciprocal lattice vectors
     2.800000000  0.000000000  0.000000000     0.357142857  0.000000000  0.000000000
     0.000000000  2.800000000  0.000000000     0.000000000  0.357142857  0.000000000
     0.000000000  0.000000000  2.800000000     0.000000000  0.000000000  0.357142857

  length of vectors
     2.800000000  2.800000000  2.800000000     0.357142857  0.357142857  0.357142857


 FORCES acting on ions
    electron-ion (+dipol)            ewald-force                    non-local-force                 convergence-correction
 -----------------------------------------------------------------------------------------------
   -.353E-13 -.232E-14 -.278E-14   0.432E-14 0.119E-14 -.110E-14   0.265E-21 -.159E-21 -.212E-21   -.281E-13 0.470E-14 0.304E-13
   0.166E-12 0.212E-12 0.213E-12   -.429E-14 -.309E-15 0.596E-15   0.132E-22 0.000E+00 0.000E+00   -.316E-13 0.116E-14 -.318E-14
 -----------------------------------------------------------------------------------------------
   0.131E-12 0.210E-12 0.211E-12   0.334E-16 0.880E-15 -.507E-15   0.278E-21 -.159E-21 -.212E-21   -.597E-13 0.586E-14 0.272E-13
 
 
 POSITION                                       TOTAL-FORCE (eV/Angst)
 -----------------------------------------------------------------------------------
      0.00000      0.00000      0.00000        -0.000000      0.000000      0.000000
      1.40000      1.40000      1.40000         0.000000     -0.000000      0.000000
 -----------------------------------------------------------------------------------
    total drift:                                0.000000      0.000000      0.000000


--------------------------------------------------------------------------------------------------------



  FREE ENERGIE OF THE ION-ELECTRON SYSTEM (eV)
  ---------------------------------------------------
  free  energy   TOTEN  =       -17.73798679 eV

  energy  without entropy=      -17.72353582  energy(sigma->0) =      -17.73316980
 


--------------------------------------------------------------------------------------------------------


    POTLOK:  cpu time    0.0099: real time    0.0050


--------------------------------------------------------------------------------------------------------


 writing wavefunctions
     LOOP+:  cpu time    0.6784: real time    0.3407
    4ORBIT:  cpu time    0.0000: real time    0.0000

 total amount of memory used by VASP on root node    31547. kBytes
========================================================================

   base      :      30000. kBytes
   nonl-proj :        120. kBytes
   grid      :       1216. kBytes
   one-center:         31. kBytes
   wavefun   :        180. kBytes
 
  
  
 General timing and accounting informations for this job:
 ========================================================
  
                  Total CPU time used (sec):        0.841
                            User time (sec):        0.803
                          System time (sec):        0.038
                         Elapsed time (sec):        0.469
  
                   Maximum memory used (kb):    23506944.
                   Average memory used (kb):           0.
  
                          Minor page faults:         6033
                          Major page faults:            0
                 Voluntary context switches:            0
