ITEM: TIMESTEP
0
ITEM: NUMBER OF ATOMS
108
ITEM: BOX BOUNDS pp pp pp
0.0000000000000000e+00 1.2150000000000000e+01
0.0000000000000000e+00 1.2149999999999990e+01
0.0000000000000000e+00 1.2149999999999990e+01
ITEM: ATOMS id type xsu ysu zsu fx fy fz 
1 1                    0                    0                    0 1.90819582357449e-16 1.98834004816462e-14 1.97836538817775e-14 
2 1                    0    0.166666666666629    0.166666666666629 5.23886489744996e-16 9.26342336171615e-16  8.6389229103645e-16 
3 1    0.166666666666629                    0    0.166666666666629  1.0547118733939e-15 2.00013616780126e-14 6.69603261727048e-16 
4 1    0.166666666666629    0.166666666666629                    0 1.04777297948999e-15 1.79630615937398e-15 2.02893257750247e-14 
5 1                    0    0.333333333333371                    0 2.51534904016637e-16 -4.6898249173033e-15 1.89639970393785e-14 
6 1                    0                  0.5    0.166666666666629 1.38777878078145e-17 4.36196218034368e-15 1.06512021424976e-15 
7 1    0.166666666666629    0.333333333333371    0.166666666666629 8.67361737988404e-18 -5.04631059161653e-15 6.99960922556642e-16 
8 1    0.166666666666629                  0.5                    0 1.64451785522601e-15 5.44009282066327e-15 2.05959381494036e-14 
9 1                    0    0.666666666666629                    0 -1.73472347597681e-16 -1.97758476261356e-16 2.01609562378025e-14 
10 1                    0    0.833333333333371    0.166666666666629 -4.5102810375397e-15 -1.9970136655445e-14 1.17614251671228e-15 
11 1    0.166666666666629    0.666666666666629    0.166666666666629 2.17187379192296e-15 -7.45063732932039e-16 1.30104260698261e-16 
12 1    0.166666666666629    0.833333333333371                    0  2.8345381597461e-15  -1.929532922329e-14 1.94592605917698e-14 
13 1    0.333333333333371                    0                    0 -8.15320033709099e-16 1.97081934105725e-14 1.96279624498086e-14 
14 1    0.333333333333371    0.166666666666629    0.166666666666629 -1.53696499971545e-15 8.80155323623732e-16 8.09031661108683e-16 
15 1                  0.5                    0    0.166666666666629 1.37216626949765e-15 2.03513421392909e-14 5.79397640976254e-16 
16 1                  0.5    0.166666666666629                    0 1.47017814589034e-15 1.76941794549634e-15 2.07017562814382e-14 
17 1    0.333333333333371    0.333333333333371                    0 -3.33066907387547e-16 -4.99730465342019e-15  1.9630347694588e-14 
18 1    0.333333333333371                  0.5    0.166666666666629 -5.23886489744996e-16 4.73845632362328e-15 1.16876994193937e-16 
19 1                  0.5    0.333333333333371    0.166666666666629 1.20795714702816e-15 -5.00988139862102e-15 8.03827490680753e-16 
20 1                  0.5                  0.5                    0 2.22738494315422e-15 4.45650460978442e-15 2.10964058722229e-14 
21 1    0.333333333333371    0.666666666666629                    0 -1.41553435639707e-15 4.72928987638177e-16 2.03153466271644e-14 
22 1    0.333333333333371    0.833333333333371    0.166666666666629 -1.72084568816899e-15 -1.9560958755549e-14 4.29127219869763e-16 
23 1                  0.5    0.666666666666629    0.166666666666629 -9.80425210131616e-16 -1.43461631463282e-15 8.44810332800705e-16 
24 1                  0.5    0.833333333333371                    0 -1.13624387676481e-15 -1.93838001205648e-14 2.10276674544874e-14 
25 1    0.666666666666629                    0                    0 1.49880108324396e-15 2.08132122647697e-14  2.0719537197067e-14 
26 1    0.666666666666629    0.166666666666629    0.166666666666629 -3.64291929955129e-16 9.40220123979429e-16 8.49147141490647e-16 
27 1    0.833333333333371                    0    0.166666666666629 7.59808882477842e-16 1.93768612266609e-14 7.35522753814166e-16 
28 1    0.833333333333371    0.166666666666629                    0 7.84095011141517e-16 1.85962356624714e-15 1.96561517062932e-14 
29 1    0.666666666666629    0.333333333333371                    0 5.51642065360625e-16 -4.38581462813836e-15 2.00742200640036e-14 
30 1    0.666666666666629                  0.5    0.166666666666629 7.97972798949331e-17 3.96210841913103e-15 9.99200722162641e-16 
31 1    0.833333333333371    0.333333333333371    0.166666666666629  4.8919202022546e-16 -4.69416172599324e-15 7.91033905045424e-16 
32 1    0.833333333333371                  0.5                    0 1.00613961606655e-16 4.73666245115467e-15 1.99978922310606e-14 
33 1    0.666666666666629    0.666666666666629                    0 1.75900960464048e-15 -4.60569082871842e-16 2.12815876032835e-14 
34 1    0.666666666666629    0.833333333333371    0.166666666666629 1.12323345069498e-15 -1.85112342121485e-14 7.81492925927552e-16 
35 1    0.833333333333371    0.666666666666629    0.166666666666629 1.36696209906972e-15 -2.42861286636753e-16 2.08860706507608e-15 
36 1    0.833333333333371    0.833333333333371                    0 5.56846235788555e-16 -1.91825721973515e-14  2.0344836926256e-14 
37 1                    0                    0    0.333333333333371 2.46330733588707e-16 1.97871233287295e-14 -5.31172328344098e-15 
38 1                    0    0.166666666666629                  0.5 -3.81639164714898e-17  1.7728873924483e-15 4.93702301262999e-15 
39 1    0.166666666666629                    0                  0.5 1.56819002228303e-15 2.01522826204226e-14  5.5198901005582e-15 
40 1    0.166666666666629    0.166666666666629    0.333333333333371 -3.46944695195361e-17 6.66133814775094e-16 -4.92661467177413e-15 
41 1                    0    0.333333333333371    0.333333333333371 3.22658566531686e-16 -4.65079363909382e-15 -4.72798883377479e-15 
42 1                    0                  0.5                  0.5 -3.61516372393567e-15 5.82259934711615e-15 4.71150896075301e-15 
43 1    0.166666666666629    0.333333333333371                  0.5 -1.45022882591661e-15 -4.69763117294519e-15 5.00554458993108e-15 
44 1    0.166666666666629                  0.5    0.333333333333371 -1.37737043992558e-15 4.75636447391631e-15 -4.91794105439425e-15 
45 1                    0    0.666666666666629    0.333333333333371 -4.12517242587285e-15 -9.12464548363801e-16 -4.74620343027254e-15 
46 1                    0    0.833333333333371                  0.5 -4.00027233560252e-15 -2.13110779023751e-14 5.65693325516037e-15 
47 1    0.166666666666629    0.666666666666629                  0.5 2.70616862252382e-16 -4.44089209850063e-16 4.52589354882349e-15 
48 1    0.166666666666629    0.833333333333371    0.333333333333371 -1.08376849161651e-15 -1.96648253236731e-14 -5.49213452494257e-15 
49 1    0.333333333333371                    0    0.333333333333371 -3.43475248243408e-16 2.03702072570922e-14 -5.80330054844591e-15 
50 1    0.333333333333371    0.166666666666629                  0.5 -5.48172618408671e-16 9.84238732182341e-16 5.41428880895811e-15 
51 1                  0.5                    0                  0.5 2.29677388219329e-15   2.053066917862e-14 4.61262972262233e-15 
52 1                  0.5    0.166666666666629    0.333333333333371 1.23456219936222e-15 9.08995101411847e-16 -4.73579508941668e-15 
53 1    0.333333333333371    0.333333333333371    0.333333333333371 -7.80625564189563e-16 -5.23886489744996e-15 -5.54417622922188e-15 
54 1    0.333333333333371                  0.5                  0.5 7.21644966006352e-16 5.61114946670388e-15 4.43915737502465e-15 
55 1                  0.5    0.333333333333371                  0.5 1.62977270568021e-15 -4.30905311432639e-15 4.39470508595274e-15 
56 1                  0.5                  0.5    0.333333333333371 1.63324215263216e-15 4.12820819195581e-15 -4.46170878021235e-15 
57 1    0.333333333333371    0.666666666666629    0.333333333333371 -4.19803081186387e-16 -5.88288098790635e-16 -4.92704835264313e-15 
58 1    0.333333333333371    0.833333333333371                  0.5 -6.17561557447743e-16 -2.02977825519701e-14 5.47261888583783e-15 
59 1                  0.5    0.666666666666629                  0.5 -4.10262102068515e-16 -1.28022592527088e-15 3.83482308408123e-15 
60 1                  0.5    0.833333333333371    0.333333333333371 -1.46887710328336e-15 -1.97543804231204e-14 -5.45050116151913e-15 
61 1    0.666666666666629                    0    0.333333333333371 6.26235174827627e-16 2.08617845220971e-14 -5.2054714705374e-15 
62 1    0.666666666666629    0.166666666666629                  0.5  4.5102810375397e-17 1.79370407416002e-15 4.59181304091061e-15 
63 1    0.833333333333371                    0                  0.5  1.6306400674182e-16 1.95642113620664e-14 4.85462364752109e-15 
64 1    0.833333333333371    0.166666666666629    0.333333333333371 5.22151766269019e-16 8.37871438896798e-16 -4.46170878021235e-15 
65 1    0.666666666666629    0.333333333333371    0.333333333333371 -3.22658566531686e-16 -4.56926163572291e-15 -4.68678915122034e-15 
66 1    0.666666666666629                  0.5                  0.5  7.0082828429463e-16 4.73926453636864e-15 3.60822483003176e-15 
67 1    0.833333333333371    0.333333333333371                  0.5 1.43114686768087e-15 -3.69235891861663e-15 5.83040560275805e-15 
68 1    0.833333333333371                  0.5    0.333333333333371 1.33313499128818e-15 5.57540125178946e-15 -3.70189989773451e-15 
69 1    0.666666666666629    0.666666666666629    0.333333333333371 1.26548077572508e-15 -1.57252683097298e-15 -4.31252256127834e-15 
70 1    0.666666666666629    0.833333333333371                  0.5 1.96023752785379e-15 -1.97819191583015e-14 4.49466852625591e-15 
71 1    0.833333333333371    0.666666666666629                  0.5 2.76167977375508e-15 -1.0772632785816e-15 4.41140179940902e-15 
72 1    0.833333333333371    0.833333333333371    0.333333333333371 1.69092170820839e-15 -2.05929023833207e-14 -5.38371430769402e-15 
73 1                    0                    0    0.666666666666629 -1.59594559789866e-16 1.88174129056584e-14 -9.78384040450919e-16 
74 1                    0    0.166666666666629    0.833333333333371 -4.81212292235966e-15 3.81118747672105e-15 -2.06380051936961e-14 
75 1    0.166666666666629                    0    0.833333333333371 3.10515502199848e-15 1.54286305953377e-14 -2.02754479872169e-14 
76 1    0.166666666666629    0.166666666666629    0.666666666666629 1.80411241501588e-15 2.07819872422021e-15 -4.32813507256213e-16 
77 1                    0    0.333333333333371    0.666666666666629 -4.03843625207401e-15 -7.41767758327683e-15 -2.63677968348475e-16 
78 1                    0                  0.5    0.833333333333371 -3.46597750500166e-15 2.03222855210683e-15 -2.08236206056256e-14 
79 1    0.166666666666629    0.333333333333371    0.833333333333371 -9.61036805691151e-16 -6.62143950780347e-15  -2.034310220278e-14 
80 1    0.166666666666629                  0.5    0.666666666666629 8.32667268468867e-17 3.10342029852251e-15 -1.0096090630185e-15 
81 1                    0    0.666666666666629    0.666666666666629 -4.23966417528732e-15 5.06539254985228e-16 -1.20042864537595e-15 
82 1                    0    0.833333333333371    0.833333333333371 -4.54497550705923e-15 -1.89700685715444e-14 -2.08279574143155e-14 
83 1    0.166666666666629    0.666666666666629    0.833333333333371 1.11889664200504e-15 8.77770078844264e-16 -1.87697080100691e-14 
84 1    0.166666666666629    0.833333333333371    0.666666666666629  1.0547118733939e-15 -1.86448079197987e-14 1.05818132034585e-16 
85 1    0.333333333333371                    0    0.666666666666629 -1.38430933382949e-15 1.89319046550729e-14 -2.38307637512314e-16 
86 1    0.333333333333371    0.166666666666629    0.833333333333371 -1.75900960464048e-15 2.46721046370801e-15 -2.01455605669532e-14 
87 1                  0.5                    0    0.833333333333371 -1.13797860024079e-15 1.70453928749481e-14 -2.03257549680202e-14 
88 1                  0.5    0.166666666666629    0.666666666666629 -9.81075731435107e-16  2.4980018054066e-15 -1.0547118733939e-15 
89 1    0.333333333333371    0.333333333333371    0.666666666666629 -2.53269627492614e-16 -7.17698470098505e-15 1.75857592377149e-16 
90 1    0.333333333333371                  0.5    0.833333333333371 -5.20417042793042e-16 2.35250187385905e-15 -1.98628006403689e-14 
91 1                  0.5    0.333333333333371    0.833333333333371 -1.36089056690381e-15 -6.8660355179162e-15 -2.04363435896138e-14 
92 1                  0.5                  0.5    0.666666666666629 -4.16333634234434e-16 2.08492077768963e-15 -1.93855348440408e-15 
93 1    0.333333333333371    0.666666666666629    0.666666666666629 -2.23779328401008e-15 1.01676479735691e-15 -7.14489231667947e-16 
94 1    0.333333333333371    0.833333333333371    0.833333333333371 -3.6498581934552e-15 -1.81944303373482e-14 -2.01282133321934e-14 
95 1                  0.5    0.666666666666629    0.833333333333371 -3.73399228204008e-15 3.10515502199848e-16 -1.89861147636972e-14 
96 1                  0.5    0.833333333333371    0.666666666666629 -3.59521440396193e-15 -1.86829718362702e-14 -6.80011602582908e-16 
97 1    0.666666666666629                    0    0.666666666666629 1.66533453693773e-15 1.99024824398819e-14 -1.24119464706141e-15 
98 1    0.666666666666629    0.166666666666629    0.833333333333371 1.30017524524462e-15 3.08867514897671e-15 -1.90784887887929e-14 
99 1    0.833333333333371                    0    0.833333333333371  9.9399655173471e-16 1.66932440093248e-14 -2.00811589579075e-14 
100 1    0.833333333333371    0.166666666666629    0.666666666666629 1.37737043992558e-15 4.13558076672871e-15 8.67361737988404e-17 
101 1    0.666666666666629    0.333333333333371    0.666666666666629 1.52221985016965e-15 -6.85658414456855e-15 -9.79251402188908e-16 
102 1    0.666666666666629                  0.5    0.833333333333371 2.25340579529387e-15 1.19175502799607e-15 -1.92801503928752e-14 
103 1    0.833333333333371    0.333333333333371    0.833333333333371 1.64842098304696e-15 -7.12711140105071e-15 -2.1242556325074e-14 
104 1    0.833333333333371                  0.5    0.666666666666629 2.32452945780892e-15 2.97505076130022e-15 -1.75207071073658e-15 
105 1    0.666666666666629    0.666666666666629    0.666666666666629  2.9247437804969e-15 -5.64652491430451e-16 -2.19962936753859e-15 
106 1    0.666666666666629    0.833333333333371    0.833333333333371 3.00193897517786e-15 -1.81599527082632e-14 -1.95485988507826e-14 
107 1    0.833333333333371    0.666666666666629    0.833333333333371 1.59421087442269e-15 7.59808882477842e-16 -2.00672811700997e-14 
108 1    0.833333333333371    0.833333333333371    0.666666666666629 2.06605565988838e-15 -1.98400323947467e-14 -4.54497550705923e-16 
ITEM: TIMESTEP
100
ITEM: NUMBER OF ATOMS
108
ITEM: BOX BOUNDS pp pp pp
-9.9555000576152963e-02 1.2249555000576155e+01
-9.9555000576152075e-02 1.2249555000576144e+01
-9.9555000576152075e-02 1.2249555000576144e+01
ITEM: ATOMS id type xsu ysu zsu fx fy fz 
1 1   0.0048336676541112  -0.0207553846313999   0.0261756413300418  -0.0084773925137244   0.0645507323759153   -0.271277329751242 
2 1  -0.0199363521131772    0.148322898988908    0.171243455256445    0.427214163255158    -0.21724232626646    -0.30599150999168 
3 1    0.184087554709322   -0.015562827737142      0.1959495402416   -0.305288331941191    0.211789323857309   -0.380874666937495 
4 1    0.151755975540254    0.151916056363802  0.00855833868934042   -0.421712146192638    0.284432250543787   -0.275455853141971 
5 1 -0.00792330693161603    0.318150628962485  -0.0124039790580355    0.518566845233646    0.687209425685796    0.179080742084023 
6 1  0.00755365676513975    0.507072630084281    0.191777804668504   -0.855084355022225   -0.399461115927952   -0.477020483809632 
7 1    0.132961137383063    0.321935986116841    0.170985725849391    0.172663461167834   -0.305464432748633   -0.366390652053912 
8 1     0.13785363750867    0.490474706739178   0.0252421751678185    0.652655230212363  -0.0747143424606909   -0.240458528121879 
9 1   0.0326560241071547    0.676284863389469   0.0150245877102861   -0.381750807335453   -0.412476008916934   -0.988543783576022 
10 1   0.0235419681375788    0.806739199167396    0.166848258828963   -0.461349978126087     1.05214358286397     1.06979847784328 
11 1    0.167976151710491    0.654488512336002    0.202174954057455    0.692298205243008   -0.424249117175238   -0.375153132573083 
12 1    0.192646617002652    0.843609297749254   0.0267021558335045    -0.22695438964032   -0.229028267122758   -0.378870968676473 
13 1    0.336052625266461   0.0333945290743713 -0.00844188994341266   -0.016605772894553   -0.421916214878508    0.309222172102313 
14 1    0.299773425157127    0.174181515944383    0.160995822085397     0.83280061291495  -0.0329803516529433   0.0854645720933487 
15 1    0.512362180662535   0.0111982335783978    0.160171323734403    0.337452670135449    0.328066831578327   -0.300255378824306 
16 1    0.475302803113664     0.21753627251519  -0.0340430080487408    0.283907335613164   -0.740396313524557     1.03545133872516 
17 1    0.304489858780357    0.342430160007098  0.00855206049538992    0.145477906209376    0.142994121313954   0.0848493897361068 
18 1    0.336245814058429    0.485474198385987    0.180089885442158   -0.445792761856211    0.234167585363778   -0.105515113414936 
19 1     0.49124823172076    0.344329723296937    0.170480972091468     0.38282955218357   0.0554838545326056   -0.448662043004916 
20 1     0.49512535459678    0.506537625424016  -0.0132894000215629   -0.443825639343183   -0.696407911848432  -0.0744308426677482 
21 1    0.322311346688934    0.638710597174168   0.0171836449211469   -0.541276891103137    0.453280217436256   -0.233689177328256 
22 1    0.371484307080664    0.860495298707065     0.15085632333421   -0.453316519102861   -0.669655774152065   -0.344109092678543 
23 1    0.500801548439085    0.647295527036363    0.143671014209872   0.0701971152717603    0.668833283907963    0.724131176424997 
24 1    0.527871022171894    0.847794138186714  -0.0383174583976142    0.180523812549504   0.0673339124519036    0.600157063293929 
25 1    0.686298642320253   0.0213158968890639 -0.00433506884712642   -0.685094661752639   -0.194197559974167   0.0951099291562192 
26 1    0.653166677270292    0.193700345139973    0.142251934682008    0.352159424304254   -0.366755606622482    0.112682741731125 
27 1    0.811257451603865    -0.01569790589474    0.178082403151961    0.483625188218308     0.24136735453073   -0.788160933015652 
28 1    0.854925230508343    0.160624219021315 -0.00472847672449461   -0.902606865224929  -0.0933371039902857    0.443067429248769 
29 1    0.659714837764113    0.368684597188576   0.0108753849315235    0.277820822411734    -1.01315834403842    -1.30552700828087 
30 1    0.670167916400032    0.501881287501419    0.152755482908333    0.248873913970373    0.508939796913925     1.69816080860787 
31 1    0.847169358996439    0.345676463962377    0.156149943141259   -0.531261958094884   -0.159404147237854    -0.10080658547359 
32 1    0.851879576334227    0.506068194472164  0.00253382366292954     0.25201673256842    0.154468063916915    0.192254806749563 
33 1    0.671828906665723    0.637214979015425 -0.00793437082370474    0.212858094761961    0.910355040981445   -0.360508569393282 
34 1    0.657711187798327    0.832475516137606    0.148136941687312   -0.151280696362233   -0.243640506601665    0.044574412968464 
35 1    0.834400855716126     0.67865803948439    0.173235422209018  -0.0200360009907672   -0.290223931964055   -0.118763818222031 
36 1    0.846273844711732    0.823972439764475 -0.00222753276727872   -0.186652122925017  -0.0432255179792673    0.507428032327813 
37 1  -0.0094691893003187  -0.0195533447813432    0.339910984122525     0.42097519738373   -0.241776282525049   -0.211970262637524 
38 1 -0.000481627950705388    0.156278809216019    0.480084213830878   -0.641514289656858   -0.516010217375255    0.833118773582328 
39 1    0.174058406194604  0.00319313414968292    0.493061071007673   -0.783161987022962   -0.608654955212561   -0.347749434289986 
40 1    0.154548343555462    0.156148543934364    0.327996941076549  -0.0283172179879229    0.166690208847647  -0.0485117065778744 
41 1  -0.0282891817589075     0.30070008487678    0.322077570898614    0.412464828521857    0.940422268563236    0.505035692863807 
42 1 -0.00998223644694463    0.489168615828703    0.504837739606387    0.394687611226877   0.0801948022976266   -0.312537541108635 
43 1    0.142496963356734    0.309619695464789    0.499628879633292    0.865093182775302    0.476730502462883   -0.285441382692366 
44 1    0.167790390008008    0.458209347829666    0.332192364832622   0.0416725599396447    0.626734045070816    0.614639956881898 
45 1 -0.000319455106819078    0.644521454288338    0.346405617109667  -0.0402292858163274    0.807874441150239    0.352008638058543 
46 1  -0.0196984705889918    0.814729322182529    0.499751545331605    0.558490725125488    0.346107860542685   -0.322803388790517 
47 1    0.168440168978577    0.646211750575844    0.497510335620973    0.105758147977425    0.330113911494582   -0.255591424950513 
48 1    0.206421150060237     0.82096225727355    0.336027813757255   -0.353496625474396   -0.218163546407415     0.34962862704893 
49 1     0.35939253290519  -0.0257056816636805     0.34494421000727   -0.157285085453284     1.21144157309419   -0.462360179601848 
50 1    0.322089554952299    0.154371979538951    0.471529723539675    0.605313608254575    0.333096124696938    0.621945355445278 
51 1    0.492865433202041 -0.00176854250003089    0.533875742983582    0.436685644764936    0.598322222465561   -0.485248380522298 
52 1    0.497373106371015     0.17712718521625    0.302397603332452    0.191833857600842     -0.6619893373283    0.415801927861048 
53 1    0.332396221920817    0.311440057130426    0.327061309640271   -0.193376585177956    0.625248257931285    0.280731195421766 
54 1    0.345579251220897    0.496232658022336    0.506949062386639   -0.188956916831346  -0.0186827768258189   -0.239794359589096 
55 1    0.519728959261784    0.308208319348523    0.477290174782752   -0.554382774878207   0.0580856525143181    0.630461972156271 
56 1    0.511669653402919    0.484973844483761    0.357031772417486  -0.0986204550553274    0.500179781676826   -0.464600136497873 
57 1    0.359250049480693    0.644850222382502    0.327235589869815   -0.186600530007953     0.24208616166617    0.332327643203445 
58 1    0.347939138001607    0.847861980143648    0.511996770819792   -0.236905543098839   -0.804754658832357    0.206672531908499 
59 1    0.510449524979549    0.672261242686659    0.505990925337528  -0.0688432662777155    0.276402435585021   -0.495638391903753 
60 1    0.498199072922034    0.822324913244302    0.318472895897685     0.51562207735169   -0.251724858499614    0.298065952649399 
61 1    0.651277535918553 -0.000928983582127785    0.335902870530276   -0.284104238205701   0.0665176697813847    0.178664247259758 
62 1    0.691946872685094    0.171964274021889    0.509822107411878   -0.501350646370217    -0.74848951839494   -0.328378250973877 
63 1    0.817165256277008  -0.0295862585952591    0.488085128366606    0.532158357518227     1.36198036882268    0.661628284227084 
64 1     0.83271206299446     0.13411192732508     0.32999969400521   -0.663310724692711    0.452223632023911    0.381320691584311 
65 1    0.676568077041793    0.342280030729967    0.334927985532772    0.180869610825074   -0.484341892849922   -0.665344903724668 
66 1    0.687174637840144    0.493897056629862    0.502424708843023   -0.678939588958325    0.418745482351149  -0.0321680303929057 
67 1    0.829793015705263    0.328310227184147    0.493524426957833    0.670533275972715   0.0945962277458435    0.302794653610436 
68 1    0.827115368155432    0.504997835145105    0.338929292375383    0.223069897170548   -0.122978260411916   -0.611204452361032 
69 1    0.659935842405844    0.678028242708137    0.327845896421991    0.167282928078494   -0.545418563007942   0.0138416183852272 
70 1    0.671822771694224     0.82562858461165    0.518717502077493   -0.736333576734758   -0.442048390968821   -0.378973411664926 
71 1    0.830199449226939    0.652423161574916    0.501401229831345 0.000895886365432792    0.538402910319893    0.250761772477299 
72 1    0.813137033161524    0.838622445038595    0.332576772081097    0.202504318232319   -0.945853715890044   -0.238590112493217 
73 1 -0.00803278273383512  0.00466362728968761    0.693408106172683  -0.0663785306618914   -0.493155155831489   -0.918161701258712 
74 1  -0.0150412368734578    0.167013404815179    0.831461101377272    0.523948827950424    0.270844928160853  -0.0128728360109798 
75 1    0.171142288498004   0.0120684797658441    0.828571220898084   -0.540728157811582   -0.555139714010907    0.778820686528264 
76 1     0.13655723608565    0.163606767925558    0.671921651794605    0.183036615091367    0.481178452927635   -0.351664177803899 
77 1  0.00259830054653776    0.332030907414264    0.657567397804883   -0.503324453952812   0.0400274728999921    0.620208444922923 
78 1   0.0294910131058259    0.511841244566426    0.834857884194776   -0.799285179289663    0.103981802841937   0.0239569489288666 
79 1    0.166990503653096     0.35050568520478    0.838712615573399   -0.502696290612607    0.118491842764387    -0.15373854529923 
80 1    0.173474863467845    0.500298286054203    0.661235285718362   -0.345172504741353    0.225089244228467   0.0124406719716093 
81 1  0.00197377318193048    0.673332980018017    0.664014997096046   -0.150524588572228   -0.272099618867382   -0.310892793691123 
82 1  -0.0182640470771389    0.830123327249112    0.827811343504663    0.622400965529428   0.0705086863435052    0.194730018681702 
83 1    0.160004834962592    0.685802008484075    0.802183575307595     0.68351298180945  -0.0778081775467307     0.83959940935771 
84 1    0.178726555045387    0.838220391870323     0.65419467533809   -0.402192251068203    0.163964423274317   -0.068843778417569 
85 1    0.296702795537158   0.0300296601888022    0.663512605424444     1.42902343376298   -0.316315263190439    -0.10710628027676 
86 1    0.300409800349598    0.195062955918502    0.828710198578847    0.611514472210158   -0.777595295005117   0.0533039631670891 
87 1    0.487631396288634   0.0247455673477361    0.839193008074517    0.352720515513655    0.190088494286063   -0.565378175520834 
88 1    0.522428589316974    0.179150160773361    0.656674324660912   -0.397082204357417   -0.165228293043746    0.303115021464188 
89 1    0.310519707425101    0.341111481060921    0.665032732351847    0.348532705215279   -0.421099095847142   -0.438289289383376 
90 1    0.334033023222787    0.520434910632389    0.826622262844239   -0.490419585844476   -0.174264909289302  -0.0513963879786999 
91 1    0.470242906570093    0.351383398969347    0.813575528687011    0.349802070715014    0.344093602468984   -0.564626261848467 
92 1    0.514532313660197    0.519647409545883    0.649594136871542   -0.368481989941715    -0.43173299943734    0.170078317790182 
93 1    0.344021609828246    0.672956334899823    0.658215040971072   -0.218436670466834   0.0923487893089615    0.122167043606615 
94 1    0.337424743295969    0.839001426878781    0.859388357398188   -0.264219528341447  0.00347211488168958   -0.471490251904424 
95 1    0.496049752427552    0.671733361528709    0.835622252143025   0.0145664428938461      0.1070530422016   -0.146151882694408 
96 1    0.508738783659624    0.844998730760835    0.680202179982302   -0.354390577929227   -0.686228773163587    0.490670189655618 
97 1    0.673224398342882  -0.0199947442103507    0.680901599232584   -0.178020128239374     1.37846716298118   -0.451008584579005 
98 1    0.652296841631141    0.214070011924036    0.835669235660816    0.289058595771879   -0.317679213258619    0.111792943048865 
99 1    0.831279670267236 0.000245514331027152    0.839067978721118    0.473733248569452    0.429442280188687   0.0243348613891082 
100 1    0.825737930233231    0.171592689415206    0.680745480243672   0.0530264076230521   0.0633564588261668  -0.0270210269894773 
101 1    0.665934478751296    0.349737710431327    0.657223672066607    0.168069039773625   -0.407440511930586    0.248347507023133 
102 1    0.640519942545779    0.499109458940097    0.816779190424541    0.627712589458277   -0.330183291304823    0.646679453378147 
103 1     0.82710344139673     0.36275740518704    0.836609168130849   0.0417232026895947   -0.554993559741352    0.097072403404157 
104 1    0.858738746876725    0.500542698203844    0.678200118915356   -0.573459037613059      0.2386904864695   -0.353989343855978 
105 1    0.681184454454979    0.674080050688417    0.698757616919011   -0.516716863824146   -0.416086716110338    -1.22886275910264 
106 1    0.707315292302724    0.833810934421194    0.825971376780217    -0.95200368357727   -0.306743601795581     1.36233140136128 
107 1    0.843137581383303     0.65899226276008    0.834502828418863     0.38003300763243   -0.250067354811463    0.428261586966591 
108 1    0.834005080342308    0.836548647539416    0.663886943750299    0.855360931448243   -0.346027790614127   -0.289928202038335 
ITEM: TIMESTEP
200
ITEM: NUMBER OF ATOMS
108
ITEM: BOX BOUNDS pp pp pp
-1.8559496782413198e-01 1.2335594967824132e+01
-1.8559496782413110e-01 1.2335594967824122e+01
-1.8559496782413110e-01 1.2335594967824122e+01
ITEM: ATOMS id type xsu ysu zsu fx fy fz 
1 1 -0.00119593608087598  -0.0330066024426401   0.0261773501373455    0.462859212459864    0.482724190473085  -0.0809773507296003 
2 1   0.0163365135812228    0.160002127247139    0.183393048979042   -0.145579928544304    0.621926226615336   -0.773261289455297 
3 1    0.172721867755513  0.00141822324223995    0.162696160438372   -0.229580226721454   0.0655977467969783    0.437409283329615 
4 1    0.168457186285195    0.171892323735051  0.00688341665716052   -0.331842239673846   -0.323803060466343   0.0522645001283109 