LAMMPS (17 Nov 2016)
units metal
dimension 3
boundary p p p
atom_style atomic
read_data structure.inp
  orthogonal box = (0 0 0) to (12.15 12.15 12.15)
  1 by 1 by 1 MPI processor grid
  reading atoms ...
  108 atoms
include potential.inp
pair_style eam/alloy
pair_coeff * * AlAg.lammps.eam Al Ag
fix 1 all npt temp 800 800 1.0 iso 0.0 0.0 1.0
variable  dumptime equal 100
dump 1 all custom ${dumptime} dump.out id type xsu ysu zsu fx fy fz
dump 1 all custom 100 dump.out id type xsu ysu zsu fx fy fz
dump_modify 1 sort id format line "%d %d %20.15g %20.15g %20.15g %20.15g %20.15g %20.15g"
thermo_style custom step temp pe etotal pxx pyy pzz vol
thermo_modify format  float %20.15g
thermo 100
velocity all create 1600 40222 dist gaussian
run 10000
Neighbor list info ...
  1 neighbor list requests
  update every 1 steps, delay 10 steps, check yes
  max neighbors/atom: 2000, page size: 100000
  master list distance cutoff = 8.5
  ghost atom cutoff = 8.5
  binsize = 4.25 -> bins = 3 3 3
Memory usage per processor = 3.93753 Mbytes
Step Temp PotEng TotEng Pxx Pyy Pzz Volume 
       0                 1600    -362.880399705225    -340.751062881225     194.981238533918     4983.18276040893     2709.59192564889          1793.613375 
     100     638.435918960588    -350.485340262395    -341.655238080383    -5192.47602658739     4313.81711019857     1761.70235990581     1883.24566979878 
     200     652.543231269489    -349.921530778036    -340.896312679921    -23786.3107277016    -22121.6176036528    -32447.0055038184     1963.07462985116 
     300     711.631968062852    -351.448585139919    -341.606120442426     3593.76976831783     8196.32246899693     2209.67812538382     1857.08487803246 
     400     811.496534049547    -352.319887460446    -341.096212377014     22916.1937395393     19780.9187365604      15495.382949328     1808.93582722174 
     500     793.374280113117    -352.245065278481    -341.272036108404    -10769.7069352012    -11792.9187441104    -10590.7896155105     1893.42388054301 
     600     661.721399603464    -350.210461928816    -341.058302094145     -12615.320514647    -9670.64340569849    -9944.68805662937     1911.88596224622 
     700     827.159262868918    -352.440776215669     -341.00047250622     1521.79859872975      3766.5799667695     5201.28491908682     1853.84099161815 
     800     784.118720555319    -351.611511302506    -340.766494254273     10864.8089655149      4522.8773542599     10474.6972193663     1843.10429232595 
     900      702.91061553313    -350.356866209053    -340.635025103867    -4925.96436399555    -4260.57122869381    -4458.13505191018     1895.90703021134 
    1000     739.905539749654    -350.629393808471    -340.395881991557    -10771.2622076392    -10710.8034513844    -8734.42036892679     1909.41800743981 
    1100     841.563847856182    -351.871905677599     -340.23237452253    -1779.07917479465     7365.58205583827      1443.9158849366     1863.49591009995 
    1200     777.960518200902    -350.712783672484    -339.952939708083      8251.1333216984      4965.3607691339      8651.9268324156     1852.73335878778 
    1300      779.87754512646    -350.573435494545    -339.787077446059    -2434.90522659444    -5814.31087538215    -8004.76742127912     1894.43208953381 
    1400     775.050359733294    -350.291498523383     -339.57190448207    -14745.1775654976    -6996.27187316323     -7318.3544109264     1906.24474969667 
    1500     821.128345627323    -350.795751704217    -339.438860619141     8406.06982179308    -524.324852899518     1351.23808627737     1869.31270330242 
    1600     772.838403166138    -349.962125580129    -339.273124746263     11587.8777188081     10715.0884339714     5559.42852421786     1860.60447404012 
    1700       801.8179603307    -350.285910910234    -339.196098587927    -12733.5120838703    -10443.8660913235    -7353.51839746058     1913.40746226713 
    1800     719.767874295796    -349.052553723547    -339.097562645181    -2089.58801461936    -10689.2397920424    -6094.35128710229     1910.25435575422 
    1900     799.430232032394    -350.057696756786    -339.000908711828     6885.37417909603     10598.8126909828     8652.33108007188     1864.85755291966 
    2000     798.195679940059    -349.957609745481    -338.917896587446     4746.92921964321       4078.896143585     8163.21613895936     1871.19260540071 
    2100     813.541656604044    -350.118248826661     -338.86628798957    -14634.0887396118    -5804.83191655519    -8778.69525693747     1916.54381814971 
    2200      738.89378629032    -349.039398340449    -338.819879919212    -5758.65722680686    -7770.01774983057    -4003.26974938018     1908.35363365654 
    2300     808.550919402024    -349.918787098397    -338.735852326645     9780.65512448123     9102.32232889046     5177.51981684085     1863.29708867416 
    2400     744.080008186879    -349.040426706077    -338.749178502845     2706.89337335888      7169.9359271912     11599.3365502176     1876.59279519551 
    2500     719.995349811159    -348.587822560861    -338.629685306058    -9711.61081728175    -1316.52827398232    -6638.29279991961     1918.91744023235 
    2600     838.674421600254    -350.214765821153    -338.615197845362    -5309.20081342357    -4155.65017527646    -4287.86195403639     1902.70101974654 
    2700     790.213379284892    -349.459214806702     -338.52990353606     8873.01497594499     9154.91964073874     5751.55919432873     1870.70838241278 
    2800     792.912162204655    -349.472241228378    -338.505603535082     2441.30582206307     5207.00560243891     4992.65084694972     1883.44991457635 
    2900     767.474012460937    -349.041355423253    -338.426548594869    -5382.39191932712    -4948.09283673289    -4372.63135131169     1911.37540645261 
    3000     871.813128984619    -350.464118131287    -338.406214144483    -3185.04033947686    -2976.31762206253    -7396.56386448878     1897.98853389854 
    3100     755.127132159885    -348.774970184986    -338.330931027169     5883.93595025765     5039.17516345338     7880.19607519586     1878.44791943216 
    3200     772.103081976198    -349.000007875521    -338.321177148084     3556.34182977848     66.1410643032986     3996.90682047491     1890.60552061968 
    3300     739.049306928273    -348.477603312572    -338.255933910973     1607.70326653073    -2062.64815363483    -4797.15537803757     1911.37986933878 
    3400     785.836989503897    -349.096384583215    -338.227602439784    -1002.49494616801    -4698.49675557408     8083.96274309424     1899.89001512267 
    3500     788.304469522775    -349.071357000134    -338.168447546425     3694.12724782174    -284.382647158499     11053.8198273123     1887.38979806604 
    3600      711.15266492017    -347.964805414424     -338.12896987986     4482.69885947961      6475.0028586979     7987.00523763366     1893.06263640569 
    3700     802.249460607425    -349.177825497236    -338.082045165577    -6008.95515045561    -4449.68902574385    -4235.11045292505     1911.09185297487 
    3800     829.670140923348    -349.515027138261    -338.039995887444    -1361.58187117906     6232.37854107946     -1156.1731008299     1899.21601073045 
    3900     778.237351586935    -348.753306509548     -337.98963370812     5713.89356348091      1609.5894178811     4740.18152692855     1892.62740170736 
    4000       861.9374528614     -349.86075675517    -337.939441620426    -7315.84644616831     1159.96303018703    -1906.13333032459     1899.88728219557 
    4100     754.497890633401    -348.331953295836    -337.896617074071    -1624.83055523138     1269.89865922416     2482.88085188319       1900.877030708 
    4200     802.892622723023     -348.95500947135    -337.850333670261     3793.77520571048     -5432.8962569341    -3809.30290344817     1902.98155786276 
    4300     905.927491070612    -350.356645925408    -337.826911807894     4178.35547845491    -3148.94869808431    -2364.02905436143     1885.57452152261 
    4400     847.156181278546    -349.506393844708    -337.789516045929     3900.19485768406     4165.64470788997     2490.08583213211     1880.21378502679 
    4500     820.757365145476    -349.109377087908    -337.757616972856    -7066.82033245526    -1006.38135257106    -8005.84278299995     1920.21561911391 
    4600     844.581937524541    -349.397033215806    -337.715759358964    -10066.4940883804    -3635.19837122584    -8602.30905161918     1920.62628129353 
    4700     820.913097393706     -349.03127613216    -337.677362109998     2709.24780413822     14241.4052210258     15505.0336730154     1870.62165790354 
    4800     838.425599645595    -349.294269482448    -337.698142922185     7533.35685001021     5713.21929631734     2771.93942545698     1883.26600886838 
    4900     808.975860731081    -348.769427568113    -337.580615502736    -12114.0889645733    -9721.79716631551    -9917.48186263682     1927.36729973472 
    5000     876.059753007891    -349.716924730222    -337.600286385058    -4752.61439434834    -3428.83266627806    -13321.6821076097     1909.85512952902 
    5100     860.906539932925    -349.425232846601    -337.518176099001     12544.3977418581     10019.6700833652      11281.674334974     1862.83138198055 
    5200     844.168719509997    -349.279354867494    -337.603796161043      2191.8398876583     6630.68617109712      -1609.886117042     1888.08427703235 
    5300     772.562129662424    -348.155317897294    -337.470138156815    -4526.50790229954    -8934.25811858654    -6967.74253149348     1931.16069825083 
    5400     745.043743706164     -347.80610718603     -337.50152971535     2905.76039899256     3195.31990482107    -4304.98323747183     1910.90127309767 
    5500     845.899083519999    -349.134838576371    -337.435347489917     4090.42709248853     2541.24876677997     8481.76995026203     1879.46134787804 
    5600     887.754408090994    -349.720491529189    -337.442106333166     1268.79911608587     1971.20237577503     3973.07087100685     1888.49378829597 
    5700     768.272500251436    -348.036069096368    -337.410218514693     -5213.5610944807    -2551.63246605156    -1969.48359658681     1918.62401766436 
    5800      709.78642470167    -347.234380189794    -337.417440898965    -1061.63153079464     2117.32015703231     561.391429097592     1916.38817640306 
    5900     926.611124043163    -350.240026047159    -337.424220004149     457.365578173477    -1736.92701444895    -517.777106573578      1889.9123164485 
    6000     830.249375925299     -348.91483296201    -337.431790407156     8708.97659836156     2615.54266638039     5593.51485450093       1882.944998232 
    6100     866.480169186417    -349.438917321244    -337.454772624217     -3332.3252890288     -11739.983754161    -5149.83670223697      1913.2062243165 
    6200     775.544846716544    -348.219910815177    -337.493477605734     2307.74946023214    -7244.71085205291    -1574.72339938889     1912.13761667997 
    6300     781.804622014982    -348.380119519173    -337.567108387217      7591.0865126942     4268.08466234709     6998.77779505275     1884.17982786818 
    6400     817.634364738725    -348.933917894595    -337.625351484482     1225.27856039347     9927.48045307437    -2588.49354591096     1889.21760594555 
    6500     821.309190388585    -349.060653577864    -337.701261258642    -338.800324784255     247.937888288518    -8060.86096184869      1907.4299587479 
    6600     780.261147812012    -348.578572878798    -337.786909284665    -3448.65400932408    -577.024017924801     -5860.8252405773     1911.38625327944 
    6700     852.907305951774    -349.749046047176    -337.952625389015     2030.11664013346     1139.10599262498     1774.15747114819     1885.09394273644 
    6800     809.823881481457      -349.2330562383    -338.032515337411     8807.27341494457     5216.78407893185     8768.78232937241     1876.46970268077 
    6900     788.322602407494    -349.076596170342    -338.173435923687    -8173.65887174892    -3716.13027786992    -2651.30195190543     1907.96499429913 
    7000     780.310838911092    -349.100376329808    -338.308025466257    -5376.52939211437     2347.96618554404    -4507.41941609129     1902.73096915171 
    7100     887.934309564898    -350.737463188977     -338.45658980526     928.420300426883      -1571.292389122     7946.07429552714     1872.76765820854 
    7200     722.304431510237    -348.627262320834     -338.63718853686     5389.16307185869     11238.1074482805     8359.29160376931     1876.70611493505 
    7300     750.126242646005    -349.140326975437    -338.765454297915    -5959.00200175861    -5017.04656968759    -7513.22540043116     1911.50863872718 
    7400     825.127875656373    -350.363466265631    -338.951258338586     -3525.7819928756    -5106.08806328837    -2283.36176992276     1899.50350262061 
    7500     829.410300380975    -350.530712354787    -339.059274915771     6243.26000929819     3745.67073255136      2209.5727436553     1870.91935587135 
    7600     720.861603013389    -349.199064764662    -339.228946504305     6713.92982249157     780.476227040794     6601.17237816637     1879.36091399438 
    7700     736.646916695011    -349.532540497033    -339.344098159593     -3347.2678542061     -2589.5609615923    -568.901705365075     1899.49953715046 
    7800     804.107999874221    -350.603385912196     -339.48190042964    -4879.79350855208    -938.282679421476    -4652.84242926229     1892.09277083086 
    7900     796.469182939612    -350.626058457831    -339.610224195827     1122.18879835074     6062.91283815272     5452.13574527637     1868.92835615157 
    8000     780.214288549506    -350.539335927884    -339.748320436503     1811.19341723824     549.212192466521    -1121.79850995767     1878.78781326262 
    8100     704.790623605567    -349.597295847141    -339.849452659539    -1651.81819116843    -542.174643655933     -1311.8572226357     1891.66949820371 
    8200     792.455707711313    -350.915185227151    -339.954860680873    -2888.33398922066    -5795.29521752911     1667.66747781213      1882.4806914385 
    8300     693.608201462853    -349.653327335922    -340.060146389635     7148.05318619187     2817.60475782107     9390.14488397515     1866.92696413635 
    8400     732.708592672977    -350.284302621068    -340.150330595381    -189.326858008928     3233.99097091206     2568.08430114358     1876.46416482428 
    8500      712.07476465789    -350.073435786742    -340.224846842376    -2338.15796434584    -2135.63014202317    -2326.36860319673     1892.03376281088 
    8600     764.303911016762    -350.858103282894    -340.287141606149    -11179.9784707228    -10996.7311512766     3216.59069660115     1893.40449066206 
    8700     804.829342590233    -351.485325577434    -340.353863322423     3595.65599438182     1030.82422971174     3016.17624010987     1863.95795241148 
    8800     732.349436936595    -350.516791077338    -340.387786475565     6072.35855252698     4227.47595189125     10378.7461055644     1859.08758445097 
    8900     716.560662732371    -350.345534809413    -340.434902146642    -5717.21459726398     -7261.2611237896     227.481159568966     1893.69950435055 
    9000      745.63986142785     -350.79354633403    -340.480724057194     -5329.8413001924    -6919.68078005222    -1336.91882836314     1889.63655023717 
    9100     817.362108944081    -351.733072162818    -340.428271277819     2929.55192072544     2417.83342442556     6712.42232226852     1855.21818044067 
    9200     709.301400218912    -350.286070862331    -340.475839865344     6884.50697900489      3785.2258747084     8393.17405779152     1869.21453629224 
    9300     769.758318927889    -351.056977280829    -340.410576585434    -6884.61721139341    -10737.8380010029    -12190.4770260298     1906.41615860921 
    9400     731.955326812283    -350.588557667623    -340.465003938154     2149.69661660036    -5035.35607773881    -931.582176321826     1882.98631067613 
    9500     801.729781302981    -351.411296258727    -340.322703526049      6193.8226573704      8401.4382159131     4119.12859379373     1851.51426292124 
    9600      803.30885764881    -351.394657235334     -340.28422455745    -2981.56522240942    -877.515626920723    -1905.24246884607     1873.64115148473 
    9700     740.054036909467    -350.379327092918    -340.143761436212    -273.560850214873    -3877.22486640115    -5510.91465647439     1894.89910123593 
    9800     797.397532235305    -351.062188742946    -340.033514634533      555.46205906979    -3339.14522583867    -5021.61771123754     1882.77062460982 
    9900     760.461704057794    -350.350030967987    -339.832210223707     3435.82187289873     6717.18962444969     11049.8366676029     1863.58618714981 
   10000     830.876629576572    -351.129257558522    -339.637539561591    -5109.86938368587     895.406711829045    -941.977454609309     1884.06519295873 
Loop time of 2.72284 on 1 procs for 10000 steps with 108 atoms

Performance: 317.316 ns/day, 0.076 hours/ns, 3672.638 timesteps/s
99.9% CPU use with 1 MPI tasks x no OpenMP threads

MPI task timing breakdown:
Section |  min time  |  avg time  |  max time  |%varavg| %total
---------------------------------------------------------------
Pair    | 2.5037     | 2.5037     | 2.5037     |   0.0 | 91.95
Neigh   | 0.0384     | 0.0384     | 0.0384     |   0.0 |  1.41
Comm    | 0.069468   | 0.069468   | 0.069468   |   0.0 |  2.55
Output  | 0.033585   | 0.033585   | 0.033585   |   0.0 |  1.23
Modify  | 0.060644   | 0.060644   | 0.060644   |   0.0 |  2.23
Other   |            | 0.01704    |            |       |  0.63

Nlocal:    108 ave 108 max 108 min
Histogram: 1 0 0 0 0 0 0 0 0 0
Nghost:    1553 ave 1553 max 1553 min
Histogram: 1 0 0 0 0 0 0 0 0 0
Neighs:    7956 ave 7956 max 7956 min
Histogram: 1 0 0 0 0 0 0 0 0 0

Total # of neighbors = 7956
Ave neighs/atom = 73.6667
Neighbor list builds = 128
Dangerous builds = 0
Total wall time: 0:00:02
