ITEM: TIMESTEP
0
ITEM: NUMBER OF ATOMS
108
ITEM: BOX BOUNDS pp pp pp
0.0000000000000000e+00 1.2150000000000000e+01
0.0000000000000000e+00 1.2149999999999990e+01
0.0000000000000000e+00 1.2149999999999990e+01
ITEM: ATOMS id type xsu ysu zsu fx fy fz 
1 1                    0                    0                    0 -5.55111512312578e-16 2.32730501537048e-14 2.34534613952064e-14 
2 1                    0    0.166666666666629    0.166666666666629 -1.38777878078145e-16 9.71445146547012e-17 2.63677968348475e-16 
3 1    0.166666666666629                    0    0.166666666666629  1.0547118733939e-15 2.37310171513627e-14  2.4980018054066e-16 
4 1    0.166666666666629    0.166666666666629                    0 1.13797860024079e-15 1.21430643318376e-15 2.44734787990808e-14 
5 1                    0    0.333333333333371                    0 -3.19189119579733e-16 -7.63278329429795e-17 2.19685380997703e-14 
6 1                    0                  0.5    0.166666666666629 -6.38378239159465e-16 3.13192126313172e-16 5.27355936696949e-16 
7 1    0.166666666666629    0.333333333333371    0.166666666666629 1.94289029309402e-16 -9.08995101411847e-16 3.59087759527199e-16 
8 1    0.166666666666629                  0.5                    0 1.49880108324396e-15 1.78781550111071e-15 2.45278481498992e-14 
9 1                    0    0.666666666666629                    0 -5.27355936696949e-16 9.29811783123569e-16 2.32938668354166e-14 
10 1                    0    0.833333333333371    0.166666666666629 -5.96744875736022e-15 -2.47198095326695e-14 1.11022302462516e-15 
11 1    0.166666666666629    0.666666666666629    0.166666666666629 2.05391259555654e-15 1.26634813746307e-16 -4.66640615037761e-16 
12 1    0.166666666666629    0.833333333333371                    0 2.88657986402541e-15 -2.39183672867682e-14 2.31065167000111e-14 
13 1    0.333333333333371                    0                    0 -1.00855196590033e-15 2.29551010903599e-14 2.30938688040427e-14 
14 1    0.333333333333371    0.166666666666629    0.166666666666629 -1.46917525888079e-15 3.33371839248559e-16 2.90003752349138e-16 
15 1                  0.5                    0    0.166666666666629 2.07305554016449e-15 2.38018595989393e-14 1.52655665885959e-16 
16 1                  0.5    0.166666666666629                    0 1.95291916318951e-15 1.02695629777827e-15 2.45512838574838e-14 
17 1    0.333333333333371    0.333333333333371                    0 -3.11816544806831e-16 -5.53901949263899e-16 2.32203071061452e-14 
18 1    0.333333333333371                  0.5    0.166666666666629 -3.60307486971245e-16 1.07339308014863e-15 -4.15988044791954e-16 
19 1                  0.5    0.333333333333371    0.166666666666629 1.41214510655716e-15 -1.12757025938492e-16 3.33348122326035e-16 
20 1                  0.5                  0.5                    0 2.86648146625296e-15 1.02176906800928e-15 2.46263614697966e-14 
21 1    0.333333333333371    0.666666666666629                    0 -2.53922859301536e-15 1.48466579742018e-15 2.38161947845386e-14 
22 1    0.333333333333371    0.833333333333371    0.166666666666629 -2.80542733141487e-15 -2.47379631427951e-14 -4.12911621127526e-17 
23 1                  0.5    0.666666666666629    0.166666666666629 -3.6120664305677e-16 -2.60208521396521e-16 1.97758476261356e-16 
24 1                  0.5    0.833333333333371                    0 -5.8261636617582e-16 -2.42583730880597e-14 2.46768886791662e-14 
25 1    0.666666666666629                    0                    0 1.81799020282369e-15 2.40953090813179e-14 2.42913328341032e-14 
26 1    0.666666666666629    0.166666666666629    0.166666666666629 1.04083408558608e-16 4.04190569902596e-16  4.0766001685455e-16 
27 1    0.833333333333371                    0    0.166666666666629 2.08166817117217e-16 2.24299745443801e-14 2.22044604925031e-16 
28 1    0.833333333333371    0.166666666666629                    0 1.94289029309402e-16 1.23512311489549e-15  2.3189783426858e-14 
29 1    0.666666666666629    0.333333333333371                    0 1.08246744900953e-15 1.22921421305544e-16 2.34395836073986e-14 
30 1    0.666666666666629                  0.5    0.166666666666629 1.66533453693773e-16                    0 9.71445146547012e-17 
31 1    0.833333333333371    0.333333333333371    0.166666666666629 -1.38777878078145e-16 -5.70425867998936e-17 3.88578058618805e-16 
32 1    0.833333333333371                  0.5                    0 2.77555756156289e-16 1.26287869051112e-15 2.33493779866478e-14 
33 1    0.666666666666629    0.666666666666629                    0 1.60982338570648e-15 4.77048955893622e-16 2.45012343746964e-14 
34 1    0.666666666666629    0.833333333333371    0.166666666666629 9.97465998686664e-16 -2.32730501537048e-14 9.71445146547012e-17 
35 1    0.833333333333371    0.666666666666629    0.166666666666629 2.66453525910038e-15 1.38777878078145e-15 1.42941214420489e-15 
36 1    0.833333333333371    0.833333333333371                    0 1.66533453693773e-15 -2.39530617562878e-14 2.40224506953268e-14 
37 1                    0                    0    0.333333333333371 -2.77555756156289e-16 2.30891694652513e-14 -8.88178419700125e-16 
38 1                    0    0.166666666666629                  0.5 -5.68989300120393e-16 1.02695629777827e-15 9.47159017883337e-16 
39 1    0.166666666666629                    0                  0.5 1.41553435639707e-15 2.41959230429245e-14 1.55812049460607e-15 
40 1    0.166666666666629    0.166666666666629    0.333333333333371 8.32667268468867e-17 3.90312782094782e-16 -6.24500451351651e-16 
41 1                    0    0.333333333333371    0.333333333333371 -9.71445146547012e-17 6.93889390390723e-17 1.17961196366423e-16 
42 1                    0                  0.5                  0.5 -4.96824803519758e-15 1.97201467395242e-15 8.92854041568969e-16 
43 1    0.166666666666629    0.333333333333371                  0.5 -1.72084568816899e-15 -2.53269627492614e-16 1.02348685082632e-15 
44 1    0.166666666666629                  0.5    0.333333333333371 -1.84574577843932e-15 7.70252239692037e-16 -2.0122792321331e-16 
45 1                    0    0.666666666666629    0.333333333333371 -5.60662627435704e-15 6.24500451351651e-17 2.63677968348475e-16 
46 1                    0    0.833333333333371                  0.5 -5.32907051820075e-15 -2.64267774330307e-14 1.73472347597681e-15 
47 1    0.166666666666629    0.666666666666629                  0.5 5.55111512312578e-17 5.06539254985228e-16 7.52869988573934e-16 
48 1    0.166666666666629    0.833333333333371    0.333333333333371 -1.20736753927986e-15 -2.4605317783255e-14 -9.35015953551499e-16 
49 1    0.333333333333371                    0    0.333333333333371 -3.76163943743846e-16  2.4120791220503e-14 -1.22018484183771e-15 
50 1    0.333333333333371    0.166666666666629                  0.5 -3.75540527494667e-16 -1.10700429942559e-16 1.48073217641313e-15 
51 1                  0.5                    0                  0.5 2.75899637337818e-15  2.4495620240322e-14   7.950827225333e-16 
52 1                  0.5    0.166666666666629    0.333333333333371 1.43258134858906e-15  2.4980018054066e-16 -3.46944695195361e-16 
53 1    0.333333333333371    0.333333333333371    0.333333333333371 -9.20311461587164e-16 -1.06593336587912e-15 -9.09713385351119e-16 
54 1    0.333333333333371                  0.5                  0.5 7.46581615973518e-16 1.84680401059794e-15 6.91422830448318e-16 
55 1                  0.5    0.333333333333371                  0.5 2.33746534497939e-15 -1.21159592775255e-17 6.28417131699754e-16 
56 1                  0.5                  0.5    0.333333333333371 2.38239874876534e-15 4.31658154316159e-16 1.36907629330607e-16 
57 1    0.333333333333371    0.666666666666629    0.333333333333371 -1.19655262260931e-15  6.7776527120679e-16 -2.93649382154121e-16 
58 1    0.333333333333371    0.833333333333371                  0.5 -1.38821246165044e-15 -2.52308109572209e-14 1.80403448798473e-15 
59 1                  0.5    0.666666666666629                  0.5 4.76981193257842e-16 -1.52655665885959e-16 -6.29955343531968e-17 
60 1                  0.5    0.833333333333371    0.333333333333371 -4.78770126842443e-16 -2.48566629518915e-14 -9.68070567285151e-16 
61 1    0.666666666666629                    0    0.333333333333371 1.00613961606655e-15 2.43693953905222e-14 -5.13478148889135e-16 
62 1    0.666666666666629    0.166666666666629                  0.5 2.91433543964104e-16 4.61436444609831e-16 5.13478148889135e-16 
63 1    0.833333333333371                    0                  0.5 2.42861286636753e-16 2.29399832463173e-14 1.08940634291343e-15 
64 1    0.833333333333371    0.166666666666629    0.333333333333371 -7.63278329429795e-17 2.63677968348475e-16 -7.97972798949331e-17 
65 1    0.666666666666629    0.333333333333371    0.333333333333371 8.35343892582191e-17 5.67579837296162e-17 4.27074012005618e-17 
66 1    0.666666666666629                  0.5                  0.5 6.93889390390723e-16 8.15320033709099e-16 -4.63171168085807e-16 
67 1    0.833333333333371    0.333333333333371                  0.5 1.81799020282369e-15 1.30227588695381e-15 2.24820162486594e-15 
68 1    0.833333333333371                  0.5    0.333333333333371  1.8249290967276e-15 2.11983208764366e-15 1.16573417585641e-15 
69 1    0.666666666666629    0.666666666666629    0.333333333333371 1.52829138233557e-15 -3.05311331771918e-16 4.22893057377971e-16 
70 1    0.666666666666629    0.833333333333371                  0.5 2.24820162486594e-15 -2.46434816997265e-14 7.56339435525888e-16 
71 1    0.833333333333371    0.666666666666629                  0.5  4.3159920082303e-15 2.70616862252382e-16 1.38777878078145e-15 
72 1    0.833333333333371    0.833333333333371    0.333333333333371 3.36932765758816e-15 -2.59568706589483e-14 -8.46030060244751e-16 
73 1                    0                    0    0.666666666666629 -5.96744875736022e-16 2.25514051876985e-14 -1.38777878078145e-17 
74 1                    0    0.166666666666629    0.833333333333371 -6.43929354282591e-15 3.88578058618805e-15 -2.51881848711832e-14 
75 1    0.166666666666629                    0    0.833333333333371 3.40005801291454e-15 1.81504117291453e-14 -2.48481790698918e-14 
76 1    0.166666666666629    0.166666666666629    0.666666666666629 1.80411241501588e-15 1.47278023110431e-15 3.92047505570758e-16 
77 1                    0    0.333333333333371    0.666666666666629 -5.68989300120393e-15 -2.92127433354494e-15 7.49400541621981e-16 
78 1                    0                  0.5    0.833333333333371 -4.77395900588817e-15 -1.29398851659787e-15 -2.62290189567693e-14 
79 1    0.166666666666629    0.333333333333371    0.833333333333371 -1.4432899320127e-15  -2.468511506315e-15 -2.52593085336983e-14 
80 1    0.166666666666629                  0.5    0.666666666666629 -4.16333634234434e-16 -4.45823933326039e-16 5.20417042793042e-18 
81 1                    0    0.666666666666629    0.666666666666629 -5.41233724504764e-15 1.33226762955019e-15 -5.41233724504764e-16 
82 1                    0    0.833333333333371    0.833333333333371 -5.28743715477731e-15 -2.34950947586299e-14 -2.61700383585861e-14 
83 1    0.166666666666629    0.666666666666629    0.833333333333371 9.99200722162641e-16 1.73298875250083e-15 -2.37032615757471e-14 
84 1    0.166666666666629    0.833333333333371    0.666666666666629 1.04083408558608e-15 -2.31203944878189e-14 1.35828848168984e-15 
85 1    0.333333333333371                    0    0.666666666666629 -2.66261080024421e-15 2.30807025239105e-14 5.54826909242301e-16 
86 1    0.333333333333371    0.166666666666629    0.833333333333371 -2.94892148894332e-15 1.55498647270123e-15 -2.5147415481366e-14 
87 1                  0.5                    0    0.833333333333371 -5.4917550541822e-16 2.00413517975184e-14 -2.52436960224145e-14 
88 1                  0.5    0.166666666666629    0.666666666666629 -3.36164961004144e-16 1.85962356624714e-15 -2.20309881449055e-16 
89 1    0.333333333333371    0.333333333333371    0.666666666666629 -1.4528851212392e-15 -2.47701232897364e-15 1.37338260880991e-15 
90 1    0.333333333333371                  0.5    0.833333333333371 -1.37414493846244e-15 -7.06293340870315e-16 -2.46439729788359e-14 
91 1                  0.5    0.333333333333371    0.833333333333371 -6.83467497007706e-16 -2.24486770318555e-15 -2.54184897414099e-14 
92 1                  0.5                  0.5    0.666666666666629 2.06167819361697e-16 -1.31887095645641e-15 -4.64905891561784e-16 
93 1    0.333333333333371    0.666666666666629    0.666666666666629 -3.2172886316878e-15 2.08485979131742e-15 2.96309065608499e-16 
94 1    0.333333333333371    0.833333333333371    0.833333333333371 -4.51972714896748e-15 -2.23702553334669e-14 -2.50847621483235e-14 
95 1                  0.5    0.666666666666629    0.833333333333371 -3.34801630863524e-15 1.26981758441502e-15 -2.38004060904018e-14 
96 1                  0.5    0.833333333333371    0.666666666666629 -2.91433543964104e-15 -2.34048891378791e-14 6.52256026967279e-16 
97 1    0.666666666666629                    0    0.666666666666629 1.85962356624714e-15 2.37518338330744e-14 -3.22658566531686e-16 
98 1    0.666666666666629    0.166666666666629    0.833333333333371 1.63410951437015e-15 2.10595429983584e-15 -2.38212227721135e-14 
99 1    0.833333333333371                    0    0.833333333333371 1.98105420956551e-15  1.9744622603568e-14 -2.51465515077598e-14 
100 1    0.833333333333371    0.166666666666629    0.666666666666629 2.81719092498633e-15 3.80251385934116e-15 1.60982338570648e-15 
101 1    0.666666666666629    0.333333333333371    0.666666666666629 2.00707506170517e-15 -2.26685797965771e-15 6.03683769639929e-16 
102 1    0.666666666666629                  0.5    0.833333333333371 2.50494069931051e-15 -1.88564441838679e-15 -2.41300035508374e-14 
103 1    0.833333333333371    0.333333333333371    0.833333333333371 3.46647217224286e-15 -3.2607854675952e-15 -2.65882557940952e-14 
104 1    0.833333333333371                  0.5    0.666666666666629 3.60822483003176e-15 -3.57353036051222e-16 -1.2490009027033e-16 
105 1    0.666666666666629    0.666666666666629    0.666666666666629 3.06005221162309e-15 4.30211422042248e-16 -8.06646416329215e-16 
106 1    0.666666666666629    0.833333333333371    0.833333333333371  3.6498581934552e-15 -2.2310820725624e-14 -2.43940609899462e-14 
107 1    0.833333333333371    0.666666666666629    0.833333333333371 3.35322047906317e-15 1.87350135405495e-15 -2.52957377266938e-14 
108 1    0.833333333333371    0.833333333333371    0.666666666666629 4.13558076672871e-15 -2.48100151534203e-14 8.60422844084496e-16 
ITEM: TIMESTEP
100
ITEM: NUMBER OF ATOMS
108
ITEM: BOX BOUNDS pp pp pp
-1.0202901735939562e-01 1.2252029017359400e+01
-1.0202901735939474e-01 1.2252029017359389e+01
-1.0202901735939474e-01 1.2252029017359389e+01
ITEM: ATOMS id type xsu ysu zsu fx fy fz 
1 1  -0.0133337349628846  -0.0407384193667895   0.0114171741170139   -0.188785013670733   -0.178109654307586   -0.462199779916135 
2 1  -0.0049312250068283    0.120978457018055    0.146813177356421   0.0199131681083722    0.885576766209077   0.0763639251255226 
3 1    0.177782213747605  -0.0163580923427844    0.168160464349626   -0.185513519952565    0.432363627955576  -0.0838362424304916 
4 1    0.160534878797193    0.177914782123253   0.0229729683054529    0.545939818586236   -0.199429853557741   -0.424870803910258 
5 1  0.00375958775202889    0.368923985373613 -0.00718613189604866   -0.435621484984732   -0.449623875055997   -0.217106498591155 
6 1  -0.0382281171443992    0.518870626894113     0.15573055872926     1.15067628699326   -0.294279020854046    0.362364822558757 
7 1    0.150901180919504    0.353709653092096    0.152769982914492  -0.0534570961647384    -0.85775518540011    0.735482892941608 
8 1    0.166258678076133    0.517363162741617      0.0249753137374    0.112454978200379    0.539675845664052   -0.748649376026887 
9 1 -0.00364684489920819    0.656216427312756  -0.0252191467785678   -0.790563442618239    0.597835735583996     1.36994822210226 
10 1  -0.0155832339626159    0.815379373979567    0.172567863135555    0.620753696116904   0.0149748878192609  -0.0231452887539065 
11 1    0.182283179155547    0.662448404242696    0.197652777715348   -0.456420014653273     1.13708929015346   -0.494975295659832 
12 1    0.178728357063505    0.799385337076615 -0.00661271539530617   -0.547242694819778    0.660714556159863     0.52434374132253 
13 1    0.333740058824333  0.00266278814524412  -0.0166961694486645    0.153143268406938     0.21252579233929    0.285464130427702 
14 1    0.344094592467741    0.182382541811762    0.148478560115677  -0.0372254718238558    -1.08186174582335    0.830058361280142 
15 1    0.505535450044249 -0.00275131228414693    0.146900223488387   -0.209787296254888    0.248419268722699  -0.0443771684169403 
16 1    0.511617238776353    0.173265154133446 -0.00568653288934229   -0.387930072683593   -0.322584944511531    0.568706496380872 
17 1    0.339160644662115    0.329690508558201  0.00838289891737531   -0.370857448156739    0.541733633832632   -0.788543702139731 
18 1     0.31956051525674    0.502721651679053    0.181908398423161   -0.128836868512457    -1.15096358476031   0.0394446928275851 
19 1    0.491518128244593      0.3428410014684    0.198032273765079    0.178740150439405   -0.101667211061891   -0.938522625594919 
20 1    0.497836918164126    0.473122341583576 0.000570995364682858     0.38278999112144    0.360314937025243    0.125783101199324 
21 1    0.342295347377899    0.669020570186831 0.000235683981259172    0.197759641782147   -0.714791997259806   -0.331296881644606 
22 1    0.338450560462547     0.83814775675603    0.164751084451723  -0.0533131546879976    0.130641019220939    0.003434307034042 
23 1    0.454257093894967    0.652897824383558    0.179336399992053     1.34634053435313    0.650717728764339    0.176727853315094 
24 1     0.51602060420862    0.822222126884412  0.00661614883131278    -1.08161596518817    0.414396096556305    0.237255011648454 
25 1     0.65836180853421   0.0180349198437852  -0.0230489947090859    0.382509864776673   -0.565287762044485   0.0707526802776906 
26 1    0.690925619347695    0.166841529771318    0.127564878200928   -0.857122703086272   0.0775119779141646      1.2503388318921 
27 1    0.809055714812757  -0.0228698277201715    0.203616713978931     0.23149486106459     1.40478422430697    -1.79590633977925 
28 1     0.84556177685181    0.158526565155967 -0.00144008972415577    0.758380467605907   -0.160628100986011    -1.12551866437136 
29 1    0.700603036633538    0.323817331645955  -0.0301683563873212   -0.816990593829833  -0.0572259362021349    -0.38584365538746 
30 1    0.646597237787887    0.520712862845699     0.20079352019502    0.130341904330556    0.216455400285541   -0.545893601059229 
31 1    0.818101109314966    0.355047294009182    0.137299321290357    0.367836708346834   -0.310930521286878     0.76713051525658 
32 1    0.813470819702047    0.528055124429443  0.00702385283727835     0.58236452480322    0.104380023557778    0.119816208240769 
33 1    0.654916792104359     0.66910182353547   0.0282543307678225   -0.216554021063304   -0.742956528569539   0.0936384519939043 
34 1     0.63665302464392    0.827185584523136    0.186038653659011    0.323436177514236   -0.230768950855593    0.576113763091757 
35 1    0.822211754900877    0.669031031718873    0.199036057458216    -1.02457265894586   0.0277133308405078   -0.135350009506053 
36 1    0.805380168360784    0.818304160586536    0.037815495798327    0.410093431760922    0.576488735325373   -0.574440573956596 
37 1 -0.00602414859764622   0.0189230071412112    0.322328769127921    0.431796820536117    -1.19340429097557  -0.0418984283646602 
38 1   0.0136413048502391    0.151117654109044    0.476901294885351   -0.485050523139631    0.483846224565397     1.33904755214408 
39 1     0.18686543541844   0.0107211205241811    0.503503843254748   -0.308276027034942    0.369753614622543   -0.572966085544623 
40 1    0.168929759127764     0.17189677597878    0.336612249952736    0.408076701875387    -0.71797452467533   -0.622373378891394 
41 1  0.00650450401712988    0.323125211159436    0.353371379119835   -0.735632179040988    0.509149386243631   -0.941599953256892 
42 1 -0.00267303152759268    0.506381886334452    0.508613269144234   0.0365005023234279   -0.604689657987046   -0.537311858327541 
43 1    0.156742312599818    0.338792658644707    0.495189513825267    0.603920676934208  -0.0190949988741171    0.407527181860162 
44 1    0.129014583237222    0.497604205196581    0.314260613319107    0.251268756364825   -0.181143593178443     0.70880380245695 
45 1  -0.0102709678949964    0.668208977368522    0.334938864042329    0.310453433500113   0.0332426659261371    0.277715042175107 
46 1  -0.0200654361884176    0.850771987574262    0.473793426523912    0.617398899942525   0.0156524928709922    0.505530983905537 
47 1    0.145876097117821    0.664216451366087    0.507425551895039    0.817701305893973    0.302043041431742   -0.744423531769683 
48 1    0.165152925637017    0.848506067587209    0.344175718824658   -0.262263597007146   -0.233346437913716   -0.124528706590529 
49 1    0.374728438034026    0.027609913268634     0.33548072418705   -0.593169915161479   -0.020336904428013   -0.374690396389979 
50 1    0.348596347563443    0.167758457025343    0.502494895114637   -0.662253708359801   -0.495246030623797   -0.464602855293159 
51 1    0.514065193958118 -0.00717367695989424    0.534348483257645   -0.645102536064395   0.0056508927942707   -0.531351804543707 
52 1    0.538837755868258    0.157980642413577    0.299804489214353   -0.624527389665951      1.3007214684706   -0.171393908062772 
53 1    0.314925859642699    0.319661029271856    0.325787434773247    0.188735668880165      0.7408851953463    0.201935194713803 
54 1    0.317630863972568    0.505514760568872    0.494023168533886    0.396879616985747  -0.0451996891580022   -0.756631945115989 
55 1    0.488447465161244    0.324508494285396    0.471082363669893   -0.121447400668793   0.0726876792622366   0.0757122354070181 
56 1    0.486357986776511    0.495425504206537    0.342232497965483   -0.433173407440311    0.637730494225577    0.349092571226688 
57 1    0.330645076697238    0.685688708410453     0.36210223429191   -0.322029851409725   -0.339831716723986    0.128309321507543 
58 1    0.335833188921015     0.87182851871205    0.487459933906166   0.0891300623370328    -0.76585375885201    0.887013271888156 
59 1    0.504988851929056    0.632894320973264    0.517710744924216   -0.628566990079577     0.25216518338975    0.813963407811453 
60 1     0.48528236980485    0.833901733714697    0.346147368078618    0.746173776799286   0.0244368381497083   -0.233702085954789 
61 1    0.653559289514078  0.00626987570103665    0.343650249209077   -0.215882371326394    -1.10522616517544    0.214109724331094 
62 1    0.659808942368386    0.195293883922886    0.485813081179344    0.360964842912206    -0.48586704981077    0.117209222576963 
63 1    0.825619413294817   0.0265028651333523    0.459583907070282    0.556398551504368   0.0984585197626237    0.168149739017339 
64 1    0.835914296043597    0.195425496938356    0.299646012570861    0.120180704195366    -0.36546506411663     0.10788909833335 
65 1    0.677248732063276    0.342636364937675    0.320806908933832   -0.427788635700842     -0.2234060685753  -0.0855218605749929 
66 1    0.646669241308587     0.47028654699352    0.505233136870061    0.447034844262307    0.376151809251692   0.0821488356712643 
67 1     0.82661606695774    0.342145708178464    0.497271235446533    0.378720803221993   -0.439183578863754    0.266388303896151 
68 1    0.831808759720957     0.49167264015432    0.338662874388547    0.223943406313544    0.316262953234919  -0.0129492257050122 
69 1    0.643189714956065    0.677434101153267    0.375700840999571    0.617360110099998  -0.0252673399534746    -1.08265222633693 
70 1    0.679988712740624    0.847240766246387    0.513016153661169   0.0967832631980509   -0.631649181741141   -0.104212603406168 
71 1    0.828037901194421    0.657545779418228    0.491997834667018   0.0136308337848056    0.400866858362972    0.138789785593906 
72 1    0.819300382827805    0.838848992916951    0.336976597866851   -0.236279728354495    -1.22812002622838    0.874362267145567 
73 1   0.0407571071363009   0.0180821644586331    0.652405606320485   -0.884169906855782   -0.816031650684933     0.78930045180261 
74 1   0.0233514285009733    0.159546507736991    0.856037467775764   -0.341312532669946   0.0326959949171076   -0.446805514039583 
75 1    0.149578903083466  -0.0198945547493281    0.863162477176502    0.429556388490821    0.395730044898172   -0.054659003661238 
76 1    0.169690577722349     0.18057664395235    0.661755055737785     0.48318337391164    0.360682304149992   0.0605372126188345 
77 1  0.00195608810338399    0.332025177426203    0.661872923571309    0.331122469480511    0.144617163104199    -0.41144898513644 
78 1  -0.0228712004351905    0.510859483489298    0.822071824022942   -0.212612322235278   -0.830607228206395    -0.20869664744896 
79 1    0.164356646148462    0.336327716338019    0.830858939535915   -0.177469128278079   -0.266506500466694   0.0933486718010345 
80 1    0.196405235650445    0.490258760548613    0.656360676915938    -1.10613021308078    0.303590319907717    0.678041698466922 
81 1  0.00635423637129406     0.66030379567917     0.66131889464657   -0.503600936827856  -0.0897844374191853    0.339446698105511 
82 1  0.00801953880738893    0.830257069958748    0.821584080388675   -0.540784859105224   -0.162578754465859    0.336034850546817 
83 1    0.140335083818854    0.656770839952628    0.834757257586148     1.60835937665838   -0.387961357940667   -0.836775767785661 
84 1     0.15250183680871    0.822648334413202    0.662677145560338    0.351089135341201   -0.125075028863143   -0.224432764292538 
85 1    0.291928700946755  -0.0195712143125206    0.694619231565866    0.626357737728505    0.496675389219845   -0.047813018419881 
86 1    0.334193479173678    0.178326009552165    0.820759551898391   -0.465874477810603   -0.212710175646901    0.184414220084333 
87 1    0.494289029062202   0.0245120309566573    0.806497955826558    0.117604053407968   -0.591021611414527    0.254831201122375 
88 1    0.498048619464498    0.173537558487851    0.652588544803052    0.751967572334084    0.129136485462239   0.0875328224797509 
89 1    0.343366529623609    0.326337482277836    0.647718350178138  -0.0270386184316287    0.553748563712265     0.33416153376438 
90 1    0.312163955343635    0.488533290290547    0.836834599681993     0.73250246819111    0.544508465532526    0.416553046140651 
91 1    0.508875169293901    0.303551895781084    0.838641615796405    0.140623616373066    0.746689368968918   -0.431070435731819 
92 1    0.519213457841943    0.468212579273086     0.69481997929654   -0.576663993449539    0.766629705238185  -0.0852112192216571 
93 1    0.351488311863818    0.691261264813988    0.662463405564154   -0.429661743701792   -0.133569340066788   0.0777585107475805 
94 1    0.359971208539037    0.827386163948063    0.845043971833206   -0.101377389475057  -0.0300354435403212   -0.250791841734411 
95 1    0.522778594292276    0.648391988921844    0.843909902109431   -0.529152732879486   0.0691865662137083  -0.0254306029521996 
96 1    0.527891643474391    0.826945764938841    0.679536973638506   -0.152201253943591   0.0159363919261288  -0.0393599866318957 
97 1    0.698952853361334   0.0188252282001713    0.631236771929935   -0.314556843505385   -0.242920444298866    0.957580570563681 
98 1     0.68417636986976    0.156286572200088    0.806896292285728   0.0262702972889636   -0.089245035769195   0.0936359444476651 
99 1    0.845044656089726  -0.0153191752660291    0.827485041051091   -0.193945298510199    0.133617035305364  -0.0142112020215505 
100 1     0.85861505191906    0.145222641738542    0.648069925691857    0.533949088280921    0.804763896443563    0.110105580718274 
101 1    0.672164442357598    0.326757884079143    0.675545718231774    0.477900523145894   -0.119116630709465   -0.208255085324695 
102 1     0.68896018770522    0.502899167204987    0.853029337652401   -0.571367878194434  -0.0643629159173196    -1.19567555637174 
103 1    0.854834479023793     0.30809552143694    0.809380443909163   -0.261600551352484    0.149993124643129    0.451425307778804 
104 1     0.83581552763701    0.506601066128951    0.654745132248649   -0.335773589619122   -0.421673297106366    0.420072051368544 
105 1    0.684052132033003    0.664577256789812    0.677035075361573   -0.401948960246467   0.0952136651574483   -0.387103197437147 
106 1    0.657173065831216    0.842218704961851    0.855843303994789    0.486011156342792  -0.0412483674759962   -0.639724687982509 
107 1    0.818127729641787    0.692854219662763    0.837498041104936    0.522850863729718  -0.0892522974231798    0.517798008238281 
108 1    0.865194199863481    0.826521676362631    0.657133185763428   -0.556274165157931    0.335438786859066  -0.0486910539073064 
ITEM: TIMESTEP
200
ITEM: NUMBER OF ATOMS
108
ITEM: BOX BOUNDS pp pp pp
-2.2146109995466379e-01 1.2371461099954665e+01
-2.2146109995466290e-01 1.2371461099954654e+01
-2.2146109995466290e-01 1.2371461099954654e+01
ITEM: ATOMS id type xsu ysu zsu fx fy fz 
1 1 -0.00508192413360575  -0.0339651642514696  -0.0161375192233209  -0.0155931806475704  -0.0474471459918026   -0.120044835611206 
2 1 -0.00371783087518907    0.171496587240085   0.0958001801328692  -0.0522828148068901    -1.42582317440567     1.04551417256494 
3 1    0.142664004557901     0.01720531751198    0.133425461134266    0.268346872207343    -0.25506785045868    0.486613678254519 
4 1    0.193117130527639    0.168586265114186  -0.0250226696427376    -0.64423926710415   -0.498933148536491   -0.462276147544982 