LAMMPS (17 Nov 2016)
units metal
dimension 3
boundary p p p
atom_style atomic
read_data structure.inp
  orthogonal box = (0 0 0) to (12.15 12.15 12.15)
  1 by 1 by 1 MPI processor grid
  reading atoms ...
  108 atoms
include potential.inp
pair_style eam/alloy
pair_coeff * * Al.lammps.eam Al
fix 1 all npt temp 1000 1000 1.0 iso 0.0 0.0 1.0
variable  dumptime equal 100
dump 1 all custom ${dumptime} dump.out id type xsu ysu zsu fx fy fz
dump 1 all custom 100 dump.out id type xsu ysu zsu fx fy fz
dump_modify 1 sort id format line "%d %d %20.15g %20.15g %20.15g %20.15g %20.15g %20.15g"
thermo_style custom step temp pe etotal pxx pyy pzz vol
thermo_modify format  float %20.15g
thermo 100
velocity all create 2000 29789 dist gaussian
run 10000
Neighbor list info ...
  1 neighbor list requests
  update every 1 steps, delay 10 steps, check yes
  max neighbors/atom: 2000, page size: 100000
  master list distance cutoff = 8.5
  ghost atom cutoff = 8.5
  binsize = 4.25 -> bins = 3 3 3
Memory usage per processor = 3.93753 Mbytes
Step Temp PotEng TotEng Pxx Pyy Pzz Volume 
       0                 2000    -362.880858320022    -335.219187290022    -1133.14524097542     -3882.8802410417    -1169.30635554602          1793.613375 
     100     903.230977242767    -349.116078487243    -336.623639408945     1641.40506370019    -613.076441927139     1460.62249986609     1885.51030999429 
     200     715.600922716665     -345.40502160906    -335.507662952584    -23724.0725886845    -22593.0946401769    -25413.7902258312     1997.00687861885 
     300     774.790663544708    -346.654510588529    -335.938508362484    -1000.82837428226    -1130.10622627358    -13285.1599189256     1937.22069686356 
     400     907.829824429807    -348.108521874207    -335.552476896907     19037.1939564193     12513.3176239618     10128.6569116115      1864.9506274362 
     500     913.347469815652    -348.116253366437    -335.483894743375     683.557523093876     6328.85768195747     7878.93436688166     1884.77989531107 
     600     886.509448574134    -347.499140504788    -335.237974139066     -3924.4122155291    -9101.29722017369    -8827.25848644005     1931.36926514082 
     700     801.659186305764    -346.085879189527    -334.998262844643    -5953.44504712514     456.872658005002    -3067.95357935448     1933.36636488929 
     800     833.901228983913    -346.285810286107    -334.752259552274     5196.25682376882     5871.97154008057     5159.70353933901     1907.98790567932 
     900     969.232573447776    -347.847457629456     -334.44216133032     2219.94964661239     3330.58666027761    -1379.25445702974     1904.25442917044 
    1000     968.936937293722    -347.534573308104    -334.133365903986    -3735.62074570433    -5631.70623747162    -1360.53742421024     1914.69180650118 
    1100     903.149914155468    -346.363115941536    -333.871798033465     515.316533027603    -1115.39249538529     3543.88945312127     1918.01778269865 
    1200     1013.17152055472    -347.622869236179    -333.609860586904      1685.6637252893    -5697.47519548795    -10828.4147019751     1922.29721553287 
    1300     936.893856744984    -346.336358081301    -333.378333253647     4734.36833685951    -2381.94152909538     1417.85945339259     1911.76544324043 
    1400     1033.76874022919    -347.473208408586    -333.175323001927    -2483.26916274929    -4484.36029170279     1126.89561870176     1915.02419142177 
    1500      910.39424903056    -345.602981831268    -333.011468719124     503.368697890191     1670.26244218235     10427.8310824237     1918.96553846529 
    1600     907.456074851854    -345.420813730221    -332.869938021858    -6812.43016698572     5688.39183472595    -3892.37368932202     1933.53694545824 
    1700     981.162653584838    -346.323382886157    -332.753083610964      5611.4499515016    -1212.38336638431    -3378.47921906477     1923.47996774644 
    1800     956.668341005814    -345.841137713025    -332.609615246166     9392.56327548486     1997.47855171031     6588.54613735598     1909.49935959031 
    1900      1013.0383768863    -346.539752399602    -332.528585238505    -2056.13665351082     498.823433271136    -4912.48463022413     1927.09592193717 
    2000     999.803186009945    -346.231842186674    -332.403728773597     1975.94929895057    -4978.55320712204    -8782.40656875344     1934.16834031722 
    2100     950.448327700373     -345.45341734835    -332.307922862419     306.468033495452    -466.995125954448     2556.30818868364     1927.06124579339 
    2200     1015.58320397205    -346.254606288645    -332.208242042711    -1962.97853677367     4721.58370898039    -6237.55463868023     1926.23365619971 
    2300     890.962345266952    -344.447522717851    -332.124769070406     10878.7414423536     5586.28432065072      8055.4606363618     1926.21567878775 
    2400     899.996244908726    -344.475270826069    -332.027570798619    -11610.1240182711     557.102301300464     1569.54445159367     1952.99967768518 
    2500     1005.70234062101    -345.868621376533    -331.958917726353    -5834.44643277188    -10245.3747718211    -11325.1405654655     1949.66811229481 
    2600     1056.18030115058    -346.429013349332    -331.821157329935    -377.819127239941     2551.93708686556     6328.88376562306     1907.78352652225 
    2700      1060.6313814561    -346.350962971493    -331.681544792526     18570.0674527395     6073.62199006846     5184.40187519622     1896.50308264001 
    2800     955.628521683339    -344.995147904518    -331.778007007673    -6150.99541093816    -6392.26475697804    -5182.67202194516     1955.20748988024 
    2900     883.539036574184    -343.645008778091    -331.424925692151    -12211.9373838035    -9438.50995541399    -11624.4023795678     1995.67327170252 
    3000      940.53465800294    -344.440385819243    -331.432005668248    -1386.58347800555    -4.10411691455876     786.985808682422     1955.03822643926 
    3100     988.813434885517    -344.798241353916    -331.122125380992     10808.1805455807     10067.4297930018     7144.27921671774     1913.41162875441 
    3200     953.748576842373    -344.329904836886    -331.138765147914    -990.122105657898     1983.14040623792     3113.54035179019     1946.86760130544 
    3300     886.510868447774    -343.023342849509    -330.762156845748    -5609.08628159956     -9334.8461166988    -14264.4941460669     1993.65604843112 
    3400      921.09368484826     -343.43187782138    -330.692382572339    -5571.88834815539    -2425.88411265738    -7421.22915297462     1968.22709726181 
    3500     1012.45739418427    -344.362094854406    -330.358963169497     15557.9862297529     2448.91251265454     7472.30651343334     1918.23442668526 
    3600       1056.218546219    -344.875891398441    -330.267506417794    -4379.98841263566     2234.61989808507       5726.183498178     1941.38410348689 
    3700     975.340311352713    -343.400081733822    -329.910310316354    -12881.4451687767    -7815.10410732999    -7965.49234306109     1985.32210429682 
    3800     1003.31887660023     -343.63547847046    -329.758740119108    -2702.79184834367     1142.78947147588     -3188.6499147689     1967.61888048688 
    3900     1097.08675297215     -344.66555103099    -329.491924604947     5998.30379752555     3465.32102536965     3243.43683530715     1939.35735794057 
    4000     1065.36580790637     -344.07321430997    -329.338315057511    -2267.47596302335    -2340.97504188669     2389.76086999487     1950.62314991579 
    4100     961.738355712022    -342.421463301999     -329.11981829568    -1608.86290328371    -5578.88197741392    -2553.59006016821     1971.32889844342 
    4200     993.469839456049    -342.711553386687    -328.971035448057    -1623.09273657466     5096.87036286602    -859.969267909588     1961.89138754479 
    4300     985.078464904362    -342.454473783175    -328.830015565714     3655.72668532948    -421.906738105435     4702.05662618462     1951.40870633747 
    4400     1080.03345390895    -343.642746707096    -328.704981655384    -5268.96230960265     8583.43973664688     263.949585939961     1945.93768493819 
    4500     1031.00812368271    -342.893250267791    -328.633546494507      8292.0969224392    -3908.49805962145     6907.10712718448     1954.56118422238 
    4600     987.086317894208    -342.211414343716    -328.559185841814    -579.797528110536    -6265.42086303041     -3647.8113904014     1983.17296204837 
    4700     987.713745496834     -342.15377245494    -328.492866105069    -8846.95685032708    -1950.01726789862    -1283.11266058315     1985.45102835584 
    4800      1070.3682178446    -343.271174561187    -328.467087799694     1461.92269982951      -2919.313953806     4048.91913267154     1952.89220842392 
    4900     975.975727312238    -341.855101259346    -328.356541508258     18569.6620167173     17429.3550740365     16891.7479938543     1923.65031534351 
    5000     1019.18803524915    -342.639587531636    -328.543365457249     75.7394730138448      1589.9042950608    -7342.68335210121     1975.68919462628 
    5100     1002.16900378789    -342.127585550852     -328.26675090123    -11698.8427463807    -17961.8286109509    -16993.9073439536      2019.1544298652 
    5200     1023.23985717764    -342.641939182716      -328.4896770257     1520.11895407631     6535.85431052964     1916.62768091168      1962.0982853363 
    5300     1198.23637487308     -344.76911052297     -328.19650031401     11023.2832538041     10684.5043912768     17043.6576622258     1915.79832154364 
    5400     1054.13674945217    -343.105384040984    -328.525792048994     2358.73952397371    -5905.87765610895    -11371.7522116608     1977.13270404519 
    5500     914.890841388726    -340.846315606788     -328.19261086536    -15710.4091721193    -11870.6520643583    -10507.2775971763     2029.06931222753 
    5600     969.237262308598    -341.863986709903    -328.458625559904     1200.46989561422     4089.02667127871    -1715.01404619516     1976.14918731281 
    5700      1051.7475959348    -342.764641743624    -328.218093740953     18240.7819920291     10008.1890631083     14829.4224325687     1928.16879663722 
    5800     1078.03446455998    -343.349478552604    -328.439361193774    -610.244856455594     350.361423002354    -7694.15466647256     1968.30433216648 
    5900     880.766735759299    -340.491296392584    -328.309556543214    -7315.46783410648    -1281.94944122535    -5432.86393239213     2010.65457098773 
    6000     910.760676116543    -340.985231152433    -328.388650047535     7168.68719389333    -6142.91582863135     3885.54280214365     1995.11732464396 
    6100     964.225588519237    -341.722824742441    -328.386779228278     9434.19863071345     3269.67170618767    -368.770379884766     1976.80006599008 
    6200     978.247125612664     -341.95609647298    -328.426121385609    -3269.04441579733     2649.63335923172     2375.60056642417     1989.33519708508 
    6300     988.158923897324     -342.07497243314    -328.407908894037    -2868.98025783323    -13761.3256955496    -4294.06891992912     2004.48232479693 
    6400     961.476131622685    -341.774647340721    -328.476629112649     638.900158273533     1652.12562397634     7548.74814804088     1973.26503767234 
    6500     1039.86417676013    -342.781113828164    -328.398923441454      2216.7636275789     3005.38491091624      4460.7100463869      1960.8122531818 
    6600     987.853950131996    -342.041110303604    -328.378264806486    -1830.02362881105    -2282.48584226183     -168.76381975554     1978.42630577456 
    6700     1018.12032579956    -342.453242970556    -328.371788209944     2043.45033041872    -2195.89533931399    -1608.20826357241      1979.6336810025 
    6800     1083.06664847616     -343.37716943686    -328.397452770004    -596.825423455005     1090.36222526118     56.5455693607989     1958.82576259482 
    6900     1128.64718877467    -343.997315388117    -328.387181765707     9589.70419575953     7132.30101347123     5986.05725326922     1941.20705273139 
    7000     1093.75408202819    -343.643466905071    -328.515934102679     -6625.7494061423    -5746.71770337711    -6006.78163497461     1982.43809287846 
    7100      903.46656421483     -340.95299512252    -328.457297679563    -5324.52495348028    -3945.49768652188    -8026.65736047838     2014.35658114243 
    7200     909.237520409819    -341.112299914644    -328.536785325789     8285.98365243604     946.821597294939    -7213.90199453187     1997.98635031663 
    7300       989.1113304968    -342.203861915239    -328.523625797115     6758.56734375176     2756.81247704162      2508.6254548172     1980.83042299429 
    7400     943.090708470931    -341.583216728919    -328.539484264333    -9397.50154531826     7683.77682203515    -2766.89001600586     1996.54765088439 
    7500       866.8798142712    -340.520852173487    -328.531180051028    -2751.26725749159    -304.104943633282    -2229.10143615374     2010.33309031962 
    7600     923.804809648765     -341.27433840394    -328.497346033722    -7329.81615042462    -1494.57908096768    -5968.77413439362     2013.56087462711 
    7700     834.467466390228     -339.98726664293    -328.445884372668     4298.39382953113     5814.34927776675      3182.5608832432     1992.21862149649 
    7800     893.302468784401    -340.693382776157    -328.338263265257     6761.48573805164    -6833.95567819652     8254.00736833596     1985.54527600424 
    7900     905.526123536211    -340.760160509771    -328.235977640606    -3663.70842150801    -6891.00174377791     3017.80955910382     2006.27637170681 
    8000     849.996403477058    -339.821291936998    -328.065131492165    -7389.81053189942     2320.57903472157      3340.1265777046      2023.8678288957 
    8100     951.638625739432     -341.05419030179    -327.892232999467    -15514.1578953003     -9004.9236847436    -4896.92968480061     2031.49078883986 
    8200      966.26790712554    -341.057313069035    -327.693020582159     7160.64708344414     3450.16604164918     2620.17084539182      1995.1112687994 
    8300     899.414643914095    -339.847342555121    -327.407686555362      11899.482097628     11911.4746814471     147.793214847287     1988.59666581747 
    8400     934.850139548141    -340.058489100925    -327.128730589659    -11628.0140250514    -3842.31096895162    -9088.50735572561     2029.11130224183 
    8500     866.494013887512    -338.850575599622    -326.866239418811    -2981.68877968228     8714.33006440134     -5511.4137112495      2019.6157040098 
    8600     946.678992349983    -339.623541141792    -326.530179713094     13000.1340149672     5768.44091132506     1163.54106925046     1993.95351454725 
    8700     966.593830286792    -339.635340414605    -326.266540138094     -3390.1540215867    -2455.17035064187    -2297.04870010462     2016.50693071431 
    8800     883.053700233533    -338.186693767021    -325.973323288179     465.036372372183    -4350.29657225287     6357.27193977077     2035.33301538282 
    8900     959.269579207433    -338.974298090211     -325.70679832565    -6117.76137023283    -8442.32750808166    -4008.65733044222      2043.9841644065 
    9000     983.768565628722    -339.094444232687    -325.488103016649     6735.74112670658      -2359.476491962     11778.4217956742     2006.29899335981 
    9100     1053.15985060755    -339.806092619735     -325.24001195498     3483.81005612927    -1409.19063088528     13895.5322791567     2003.50710499497 
    9200     870.634300028441    -337.099918785694    -325.058318988283    -9162.32800995955    -2585.52339930389    -1837.19304968461     2049.64681070689 
    9300      1009.1644451912    -338.804966073502    -324.847378624476    -8882.27946455552    -7260.01054274427    -8840.46292672988     2050.23745689578 
    9400     971.864227748702    -338.013577101793    -324.571882824888     2164.21771322476     8613.65238585681     16913.5472645484     2008.18093622303 
    9500     1024.38674136126    -338.567431133281    -324.399306609766     4023.29211675982    -75.0857755193235    -347.642523432344     2025.23856525103 
    9600     950.982259772153    -337.358646861932    -324.205767649341    -3446.71195586545       1315.768942518    -14244.1215481254     2062.07974821789 
    9700     1027.88130061289    -338.257896630346    -324.041439432625    -4211.41676779426    -8690.24236946459    -12485.1001647675     2062.25296500577 
    9800     1017.27260351835     -337.94113385343    -323.871403800252     6717.16966524883    -4772.28905524278     19256.4976245698     2012.18050027918 
    9900     1164.83697595643    -339.787898576225    -323.677229959981    -160.473277386612     891.473811150205     5611.65329700046     2012.81066642056 
   10000     1001.79721761633    -337.414920387338    -323.559227851102    -1864.87514344304    -8703.61093896695    -4284.17549287711     2056.11775385282 
Loop time of 2.57668 on 1 procs for 10000 steps with 108 atoms

Performance: 335.315 ns/day, 0.072 hours/ns, 3880.956 timesteps/s
99.9% CPU use with 1 MPI tasks x no OpenMP threads

MPI task timing breakdown:
Section |  min time  |  avg time  |  max time  |%varavg| %total
---------------------------------------------------------------
Pair    | 2.3585     | 2.3585     | 2.3585     |   0.0 | 91.53
Neigh   | 0.045596   | 0.045596   | 0.045596   |   0.0 |  1.77
Comm    | 0.063452   | 0.063452   | 0.063452   |   0.0 |  2.46
Output  | 0.03356    | 0.03356    | 0.03356    |   0.0 |  1.30
Modify  | 0.059381   | 0.059381   | 0.059381   |   0.0 |  2.30
Other   |            | 0.01617    |            |       |  0.63

Nlocal:    108 ave 108 max 108 min
Histogram: 1 0 0 0 0 0 0 0 0 0
Nghost:    1275 ave 1275 max 1275 min
Histogram: 1 0 0 0 0 0 0 0 0 0
Neighs:    7381 ave 7381 max 7381 min
Histogram: 1 0 0 0 0 0 0 0 0 0

Total # of neighbors = 7381
Ave neighs/atom = 68.3426
Neighbor list builds = 161
Dangerous builds = 0
Total wall time: 0:00:02
