ITEM: TIMESTEP
0
ITEM: NUMBER OF ATOMS
108
ITEM: BOX BOUNDS pp pp pp
0.0000000000000000e+00 1.2150000000000000e+01
0.0000000000000000e+00 1.2149999999999990e+01
0.0000000000000000e+00 1.2149999999999990e+01
ITEM: ATOMS id type xsu ysu zsu fx fy fz 
1 1                    0                    0                    0 -2.22044604925031e-16 2.34534613952064e-14  2.3557544803765e-14 
2 1                    0    0.166666666666629    0.166666666666629 -5.55111512312578e-17 -2.4980018054066e-16 -2.22044604925031e-16 
3 1    0.166666666666629                    0    0.166666666666629  1.2490009027033e-15 2.37206088105069e-14 -2.58473797920544e-16 
4 1    0.166666666666629    0.166666666666629                    0 1.33226762955019e-15 7.94503351997378e-16  2.4459601011273e-14 
5 1                    0    0.333333333333371                    0 -2.22044604925031e-16 7.14706072102445e-16 2.21628271290797e-14 
6 1                    0                  0.5    0.166666666666629 -4.71844785465692e-16 -4.75747913286639e-16 -1.38777878078145e-17 
7 1    0.166666666666629    0.333333333333371    0.166666666666629 1.38777878078145e-16  9.0205620750794e-17 -2.4980018054066e-16 
8 1    0.166666666666629                  0.5                    0 1.83186799063151e-15 1.22211268882566e-15 2.45088237899038e-14 
9 1                    0    0.666666666666629                    0 -5.55111512312578e-16 1.30798150088651e-15 2.33701946683595e-14 
10 1                    0    0.833333333333371    0.166666666666629 -5.96744875736022e-15 -2.49991000123018e-14 5.55111512312578e-16 
11 1    0.166666666666629    0.666666666666629    0.166666666666629 2.08166817117217e-15 6.34908792207511e-16 -1.01828268039839e-15 
12 1    0.166666666666629    0.833333333333371                    0 2.94209101525666e-15 -2.40502062709425e-14 2.32244778963775e-14 
13 1    0.333333333333371                    0                    0 -8.32667268468867e-16  2.3185880299037e-14 2.32561365998141e-14 
14 1    0.333333333333371    0.166666666666629    0.166666666666629 -1.3314002678122e-15 -1.72550775751068e-16 -1.3162214373974e-16 
15 1                  0.5                    0    0.166666666666629 1.98408997564847e-15 2.39116994434074e-14 -2.4980018054066e-16 
16 1                  0.5    0.166666666666629                    0 1.93985452701106e-15 9.15933995315754e-16  2.4615997174654e-14 
17 1    0.333333333333371    0.333333333333371                    0 -1.40512601554121e-16 4.46257614195034e-16  2.2921118128516e-14 
18 1    0.333333333333371                  0.5    0.166666666666629 -2.00360561475321e-16 3.39326240188652e-16 -8.92840489041813e-16 
19 1                  0.5    0.333333333333371    0.166666666666629 1.35986100698105e-15 5.71591385334358e-16 -2.8124204354274e-16 
20 1                  0.5                  0.5                    0 2.90739654573713e-15 2.73544208118093e-16 2.48216703267745e-14 
21 1    0.333333333333371    0.666666666666629                    0 -2.55611504185183e-15  2.0721271920543e-15 2.38162896522287e-14 
22 1    0.333333333333371    0.833333333333371    0.166666666666629 -3.07739944638286e-15 -2.47771096174854e-14 -6.01406945077709e-16 
23 1                  0.5    0.666666666666629    0.166666666666629 -1.33707082106225e-16 6.93889390390723e-17 -1.89084858881472e-16 
24 1                  0.5    0.833333333333371                    0 -5.68989300120393e-16 -2.45845011015433e-14 2.48065457064683e-14 
25 1    0.666666666666629                    0                    0 1.90125692967058e-15 2.43936815191859e-14 2.45185816094562e-14 
26 1    0.666666666666629    0.166666666666629    0.166666666666629 -1.04083408558608e-16 -1.04083408558608e-16 -1.70002900645727e-16 
27 1    0.833333333333371                    0    0.166666666666629 2.15105711021124e-16 2.24716079078036e-14 -2.4980018054066e-16 
28 1    0.833333333333371    0.166666666666629                    0 1.66533453693773e-16 8.74300631892311e-16 2.33459085396959e-14 
29 1    0.666666666666629    0.333333333333371                    0 9.57567358739198e-16 1.04343617080005e-15 2.35783614854768e-14 
30 1    0.666666666666629                  0.5    0.166666666666629 1.94289029309402e-16 -7.35522753814166e-16 -3.24393290007663e-16 
31 1    0.833333333333371    0.333333333333371    0.166666666666629 -1.2490009027033e-16 8.01659086335782e-16 -2.91433543964104e-16 
32 1    0.833333333333371                  0.5                    0 3.60822483003176e-16 6.66133814775094e-16 2.34950947586299e-14 
33 1    0.666666666666629    0.666666666666629                    0  1.6306400674182e-15 9.73179870022989e-16 2.46296039119187e-14 
34 1    0.666666666666629    0.833333333333371    0.166666666666629 7.04297731246584e-16 -2.34048891378791e-14 -3.36536354339501e-16 
35 1    0.833333333333371    0.666666666666629    0.166666666666629 2.65759636519647e-15 1.87350135405495e-15 8.60422844084496e-16 
36 1    0.833333333333371    0.833333333333371                    0 1.73472347597681e-15 -2.4161228573405e-14 2.41681674673089e-14 
37 1                    0                    0    0.333333333333371 -2.22044604925031e-16 2.31203944878189e-14 -1.31838984174237e-16 
38 1                    0    0.166666666666629                  0.5 -3.60822483003176e-16 6.38378239159465e-16 2.77555756156289e-16 
39 1    0.166666666666629                    0                  0.5 1.66533453693773e-15  2.4230617512444e-14 1.01763215909489e-15 
40 1    0.166666666666629    0.166666666666629    0.333333333333371 2.22044604925031e-16 -1.17961196366423e-16 1.21430643318376e-16 
41 1                    0    0.333333333333371    0.333333333333371 -2.77555756156289e-16 1.02695629777827e-15 8.11850586757146e-16 
42 1                    0                  0.5                  0.5 -4.82947015711943e-15 1.21560747579075e-15 -1.97324795392362e-17 
43 1    0.166666666666629    0.333333333333371                  0.5 -1.69309011255336e-15   6.956241138667e-16 4.71844785465692e-16 
44 1    0.166666666666629                  0.5    0.333333333333371 -1.60982338570648e-15 4.05493773215086e-17 7.04297731246584e-16 
45 1                    0    0.666666666666629    0.333333333333371 -5.52335954751015e-15 3.92047505570758e-16 1.09114106638941e-15 
46 1                    0    0.833333333333371                  0.5 -5.07927033766009e-15 -2.6624535909292e-14 1.02695629777827e-15 
47 1    0.166666666666629    0.666666666666629                  0.5 3.88578058618805e-16 1.01828268039839e-15 -1.38777878078145e-17 
48 1    0.166666666666629    0.833333333333371    0.333333333333371 -1.02695629777827e-15 -2.47666470665209e-14 -1.6826817716975e-16 
49 1    0.333333333333371                    0    0.333333333333371 -1.53523027623947e-16  2.4240429542105e-14 -4.05328982183706e-16 
50 1    0.333333333333371    0.166666666666629                  0.5 -1.38777878078145e-16 -3.64888241149997e-16 9.34528062573881e-16 
51 1                  0.5                    0                  0.5 2.81458883977237e-15 2.47179663889763e-14 4.82469966756049e-18 
52 1                  0.5    0.166666666666629    0.333333333333371 1.35934342799246e-15 -8.32667268468867e-17 3.57353036051222e-16 
53 1    0.333333333333371    0.333333333333371    0.333333333333371 -6.31439345255558e-16 -1.36663683841798e-16 -4.96564594998361e-17 
54 1    0.333333333333371                  0.5                  0.5 8.34401991944844e-16 1.33584571278994e-15 6.27210956782864e-17 
55 1                  0.5    0.333333333333371                  0.5 2.45723580372115e-15 9.95731275210687e-16 -2.02203705168547e-17 
56 1                  0.5                  0.5    0.333333333333371 2.39998992901391e-15 -3.47974687259223e-16 7.65013052905772e-16 
57 1    0.333333333333371    0.666666666666629    0.333333333333371 -1.37693675905659e-15  1.0544950329594e-15 6.63369099235256e-16 
58 1    0.333333333333371    0.833333333333371                  0.5 -1.77852524374522e-15 -2.54808110375371e-14 1.16589680618229e-15 
59 1                  0.5    0.666666666666629                  0.5  4.9591407369487e-16  2.4980018054066e-16 -6.95082012780457e-16 
60 1                  0.5    0.833333333333371    0.333333333333371 -6.07207426700507e-16 -2.51682897613181e-14 -1.03649727689614e-16 
61 1    0.666666666666629                    0    0.333333333333371 9.99200722162641e-16 2.47302178735254e-14 2.25514051876985e-16 
62 1    0.666666666666629    0.166666666666629                  0.5 2.15105711021124e-16 1.26634813746307e-16 -1.42247325030098e-16 
63 1    0.833333333333371                    0                  0.5  3.2612801348364e-16 2.32175390024736e-14 4.85722573273506e-16 
64 1    0.833333333333371    0.166666666666629    0.333333333333371 -1.35308431126191e-16 -1.6306400674182e-16 6.21031004399697e-16 
65 1    0.666666666666629    0.333333333333371    0.333333333333371 -1.68918698473242e-16 1.00397121172158e-15 8.27354677823688e-16 
66 1    0.666666666666629                  0.5                  0.5 3.33066907387547e-16 2.70616862252382e-16 -1.02175212735034e-15 
67 1    0.833333333333371    0.333333333333371                  0.5 1.79023462720806e-15  2.1315414711065e-15 1.81105130891979e-15 
68 1    0.833333333333371                  0.5    0.333333333333371 1.84574577843932e-15 1.40165656858926e-15 1.83186799063151e-15 
69 1    0.666666666666629    0.666666666666629    0.333333333333371 1.04603825601401e-15 -5.20417042793042e-18 1.16920362280837e-15 
70 1    0.666666666666629    0.833333333333371                  0.5 1.83186799063151e-15 -2.47839943012806e-14 1.87350135405495e-16 
71 1    0.833333333333371    0.666666666666629                  0.5 4.25354196309513e-15 7.32053306862213e-16   5.759281940243e-16 
72 1    0.833333333333371    0.833333333333371    0.333333333333371 3.39225175727265e-15 -2.61264534312522e-14 -8.43509290193722e-17 
73 1                    0                    0    0.666666666666629 -6.38378239159465e-16 2.24611995669477e-14 5.82867087928207e-16 
74 1                    0    0.166666666666629    0.833333333333371 -6.38378239159465e-15 3.11556336285435e-15 -2.54640059038636e-14 
75 1    0.166666666666629                    0    0.833333333333371 3.33066907387547e-15 1.84140896974938e-14 -2.50875709095766e-14 
76 1    0.166666666666629    0.166666666666629    0.666666666666629 1.72084568816899e-15 8.46545056276682e-16 1.06338549077378e-15 
77 1                    0    0.333333333333371    0.666666666666629 -5.4678483962789e-15 -1.95503335742586e-15 1.23512311489549e-15 
78 1                    0                  0.5    0.833333333333371 -4.49640324973188e-15 -1.93985452701106e-15 -2.64094301982709e-14 
79 1    0.166666666666629    0.333333333333371    0.833333333333371 -1.20736753927986e-15 -1.82666382020358e-15 -2.53738002831128e-14 
80 1    0.166666666666629                  0.5    0.666666666666629 -8.32667268468867e-17 -9.4542429440736e-16 6.71337985203024e-16 
81 1                    0    0.666666666666629    0.666666666666629 -5.4678483962789e-15 1.80411241501588e-15 1.52655665885959e-16 
82 1                    0    0.833333333333371    0.833333333333371 -5.21804821573824e-15 -2.39183672867682e-14 -2.65690247580608e-14 
83 1    0.166666666666629    0.666666666666629    0.833333333333371 1.01307850997046e-15 1.80584713849186e-15 -2.38385700068733e-14 
84 1    0.166666666666629    0.833333333333371    0.666666666666629 9.71445146547012e-16 -2.34916253116779e-14 2.05044314860459e-15 
85 1    0.333333333333371                    0    0.666666666666629 -2.68361721733612e-15 2.28908146777951e-14 1.25263297998113e-15 
86 1    0.333333333333371    0.166666666666629    0.833333333333371 -3.09691508548759e-15 9.44448512452123e-16 -2.53392684439191e-14 
87 1                  0.5                    0    0.833333333333371 -5.65953534037433e-16  2.0354648955917e-14 -2.56669685505528e-14 
88 1                  0.5    0.166666666666629    0.666666666666629 -9.64647374813482e-17 1.27675647831893e-15 3.79904441238921e-16 
89 1    0.333333333333371    0.333333333333371    0.666666666666629 -1.58423621443582e-15 -1.53658552895508e-15 1.75385964432118e-15 
90 1    0.333333333333371                  0.5    0.833333333333371 -1.71650887947905e-15 -1.04094250580333e-15 -2.51179827805148e-14 
91 1                  0.5    0.333333333333371    0.833333333333371 -7.52869988573934e-16 -1.60895602396849e-15 -2.57216665501547e-14 
92 1                  0.5                  0.5    0.666666666666629 3.20056481317721e-16 -2.00696664148792e-15 -8.32667268468867e-17 
93 1    0.333333333333371    0.666666666666629    0.666666666666629 -3.44342609981396e-15 2.36621703134099e-15 7.55472073787899e-16 
94 1    0.333333333333371    0.833333333333371    0.833333333333371 -4.80995451801469e-15 -2.28974825211559e-14 -2.55666798495979e-14 
95 1                  0.5    0.666666666666629    0.833333333333371  -3.216177324461e-15 1.13103970633688e-15 -2.40397979300866e-14 
96 1                  0.5    0.833333333333371    0.666666666666629 -2.93862156830471e-15 -2.3862856135537e-14 1.01307850997046e-15 
97 1    0.666666666666629                    0    0.666666666666629 1.79717352111197e-15 2.37934671964979e-14 2.48065457064683e-16 
98 1    0.666666666666629    0.166666666666629    0.833333333333371  1.1518563880486e-15 1.62023172656234e-15 -2.39218367337202e-14 
99 1    0.833333333333371                    0    0.833333333333371 2.09554595897998e-15 1.99493199737333e-14 -2.53408405370692e-14 
100 1    0.833333333333371    0.166666666666629    0.666666666666629  2.6853519408121e-15 3.03923552991137e-15  2.3037127760972e-15 
101 1    0.666666666666629    0.333333333333371    0.666666666666629 1.46063716677247e-15 -1.33158785237683e-15  9.5062846483529e-16 
102 1    0.666666666666629                  0.5    0.833333333333371 2.00880978518114e-15 -2.33320307518881e-15 -2.43763342844261e-14 
103 1    0.833333333333371    0.333333333333371    0.833333333333371 3.33674060604139e-15 -2.37418591730876e-15 -2.67160425726498e-14 
104 1    0.833333333333371                  0.5    0.666666666666629 3.51108031537706e-15 -9.60169443953163e-16 3.46944695195361e-16 
105 1    0.666666666666629    0.666666666666629    0.666666666666629 2.52922682797418e-15 8.06646416329215e-16 -4.54497550705923e-16 
106 1    0.666666666666629    0.833333333333371    0.833333333333371 2.92127433354494e-15 -2.28748226957509e-14 -2.47397588526432e-14 
107 1    0.833333333333371    0.666666666666629    0.833333333333371 3.42434414157822e-15 1.86656246015104e-15 -2.54692100742915e-14 
108 1    0.833333333333371    0.833333333333371    0.666666666666629 4.18415302405606e-15 -2.5132673719952e-14   1.346145417358e-15 
ITEM: TIMESTEP
100
ITEM: NUMBER OF ATOMS
108
ITEM: BOX BOUNDS pp pp pp
-7.0449333238533640e-02 1.2220449333238534e+01
-7.0449333238533640e-02 1.2220449333238523e+01
-7.0449333238533640e-02 1.2220449333238523e+01
ITEM: ATOMS id type xsu ysu zsu fx fy fz 
1 1  0.00574295511535183   0.0029190192221904 -0.00298500573398996   -0.261353683226396   -0.076595439418418    0.209199350218142 
2 1 -0.00330319587430949    0.155233368441941    0.171076538665034   0.0612410111735393    0.180621923951387  -0.0169245947488377 
3 1    0.173005841220629  0.00708109235347365    0.161222921846502   -0.184956680541541 -0.00228295547811234    0.169441873597924 
4 1    0.165734537266985    0.174456935514741 -0.00175639136352856   0.0417849486781206   -0.120995725201489  -0.0543749490686855 
5 1 -0.00202163141688061    0.328870293240811 -7.78001210051116e-05   0.0888533191733597    -0.10634060315379   0.0309486528999945 
6 1   0.0135919596426675    0.502450873137036    0.165548298287717   -0.239577728202852   -0.196580030266669   -0.026435774565137 
7 1    0.166577715753419    0.318720838662671     0.17747828290328  -0.0229860700496044    0.233352873982789  -0.0584645801009324 
8 1    0.166941004934415    0.483037180487031 -0.00511606784323249   -0.343075879352466    0.243451514666089    0.293710736305897 
9 1  0.00359615472768837    0.666295012791579 -0.000543611283092105   -0.304861972763859   -0.191873458525545    0.129694642230755 
10 1  0.00428931639385155    0.823039441263745    0.166580534349237  -0.0893548683651074    0.666495522192453   -0.113372245892651 
11 1    0.164102671188743    0.667246140289762     0.16869928499375    0.548610420813785  -0.0399414063414627   -0.116282055064106 
12 1    0.174135213948716    0.839698217333762  0.00107550834354697   -0.331948236343989   -0.276979814039827   0.0583984127308752 
13 1    0.332464518595771  0.00267574180224983 -0.00425855960179433   0.0227873587827723    0.208414776763418 -0.00494309593076076 
14 1    0.342476383905137    0.172628361628654    0.157250304562012  -0.0586219938974898  -0.0476834649907336    0.143275211474411 
15 1     0.50254887805977   0.0112118477976537    0.158434855878454     -0.2232974759802   -0.192857644656971    0.316311148244489 
16 1    0.497260305101008    0.171421885714722  -0.0130480436928906  -0.0462589287248867   -0.078960282201597    0.270200967169608 
17 1    0.332482904805147    0.342277891869003 -0.00119817296433666    0.237638201950096   -0.425048862269784   0.0905554580070729 
18 1    0.332251067080506    0.486176869195333    0.174380314006157   -0.125215406621781    0.169539014999412     0.14346714054147 
19 1    0.514282792484778    0.339891073739068    0.172165741944809   -0.441239804900253   0.0545876890470877   -0.223781415914568 
20 1    0.504982695989384    0.499011296990261  0.00160481721184169  -0.0706172793311075  0.00602780282612341   -0.102798578287285 
21 1    0.340148726342136    0.650051550748913  0.00816426064295683   -0.291402148072986    0.349341450708176    0.176190531470179 
22 1    0.332958391039142    0.843052413741816    0.163844515479241    0.224726268061061   -0.494485134753963  -0.0214512929713091 
23 1    0.505706142662916    0.651722162404781    0.174826626161348  -0.0162872736050431    0.281182028437295    -0.17568272013695 
24 1    0.500035077979874    0.828249464424744   0.0034944561652992   -0.306896866027745  -0.0952318556265248    0.175251072968084 
25 1    0.655114453791384 -0.00653907040998547  0.00423375416539784    0.437178744404126    0.361605536726904   -0.222532193707379 
26 1    0.672246249897057    0.176859819902234    0.158546532673199  -0.0427133152924758   -0.169381420970108    0.054496585487735 
27 1    0.823252782514714  -0.0052796740269514    0.168620921524393     0.43391649424441   0.0908328546126876   -0.121422222548482 
28 1    0.831908306752894    0.160308188073827  0.00256756552960269   0.0854707742997952   0.0320925802054345   -0.254241040912088 
29 1    0.659178624636979    0.334907140717291 -0.00934225616572348      0.4013028653855   -0.130555628342667   0.0725061237047401 
30 1     0.67606484642215    0.494771386957837    0.156695310674763  -0.0378455415089579    0.409389096946951   0.0094239677642585 
31 1    0.835826192904051    0.338642506111682    0.158788763980965    0.172157465163434   -0.189849344834541    0.103817440501217 
32 1    0.835685861032175    0.493646029712409 -0.00888419144786212   0.0589437613063631    0.312866033514431    0.199806652939791 
33 1    0.665577457654535    0.664897259515556 -0.00860369845469222   0.0583970336277557   0.0138481026114503    0.144531402199949 
34 1     0.66473619935141     0.83210815742882    0.163482410162146   -0.179493028689398   -0.115490913094472     0.16602711432287 
35 1    0.831587093026428    0.680972902053441    0.158197728186451   0.0618075318844863   -0.502663780037376    0.036114107158676 
36 1    0.826320806471927    0.836857129882674 -0.00428034853206327   0.0234776942363292  -0.0960689711595645     0.22188831990841 
37 1  0.00356179915399935 -0.00402262834677458    0.341879940851527    -0.25158881119114  -0.0441134919719799   -0.556893212446381 
38 1  -0.0110176969814688    0.155513682023297    0.496900876092013    0.390302801927852    0.579582486419459  -0.0451682235274674 
39 1    0.163423663883691  -0.0107120585248026    0.496501393994663     0.18607642518811    0.121468435144242    0.332844167594545 
40 1     0.17211128101917    0.154645740758951    0.342231801147364   -0.095853027473847    0.180687784646251   -0.117633353399691 
41 1  0.00486914215639445    0.342521410015479    0.337091214713837   -0.165573100085516   -0.246488316951158   -0.171372022533803 
42 1 0.000295287672315681    0.510828755948978     0.49196315822735    0.126967999161219   -0.275266416710993    0.507287040757073 
43 1    0.170506475046068    0.341531484788447    0.486922510214299     -0.1861571877682   -0.260656220757927    0.450747847553003 
44 1    0.167240929426384    0.517636949330267    0.345208221681787    0.370956483748963   -0.054617922448405   -0.292000696012938 
45 1 -0.00467726215623543    0.669560551538552     0.33214837101832   0.0924749319480201    0.133975438433328  0.00693223198775413 
46 1 -0.00647430270720406    0.835552388382325     0.50338433804518     0.14597103726539   -0.206858066020728   0.0915196956580333 
47 1    0.177613977847727     0.68617426292974    0.507028287795265   -0.248321584978066   -0.337295641788409   -0.195362934618164 
48 1    0.166821161179087    0.833677230276749    0.329732250899838   -0.052384707142452   -0.215118906981028  0.00753457925843105 
49 1    0.332815710288969  -0.0140099403189424    0.331609976690288    0.342123160981291    0.619599186272114   0.0301024575087152 
50 1    0.342479334863015    0.161413471723108    0.500333365007009  -0.0968655998920812   -0.292630530815968      -0.064842369315 
51 1    0.521660864775185  0.00127387020677361    0.499232158205245    -0.51069845162022   0.0491187566117057  -0.0717760741493069 
52 1    0.516306213696453    0.176876416076993    0.324248052861776   -0.274450770883328   -0.349500778344258    0.189720613435369 
53 1    0.338699736414696     0.31594945847462    0.339365093606375  -0.0634109044229074    0.411476966103458   -0.356915275381614 
54 1    0.333953843145764    0.498338602938929    0.510836236556202   -0.250153878920731   0.0250547384143382    0.012281422264462 
55 1    0.496225476116479    0.326472402759464    0.501569237728631    0.167787001883846    0.440455790660448    0.179273807122743 
56 1    0.489669883919419    0.500631017427395    0.345855569901573    0.278619136191009   -0.240899115035044   -0.104061096215407 
57 1    0.346411575612251    0.673582014715976    0.338137548830787   -0.595680837437857   0.0255912710760241    -0.32735772716384 
58 1    0.340821315963353    0.840881509216274    0.497655126480936   0.0579839100938457  0.00719836715055147    0.188365289527123 
59 1    0.485056951488673     0.66599567413914    0.506835047022264    0.424226161331809   0.0980634311265239    0.292005203092221 
60 1    0.511947496228345     0.83076260816631    0.334710198494804  -0.0865100880698821   0.0729952978099689    -0.12988940896028 
61 1     0.66618491605675  0.00710490062419922    0.324870793098057    0.140188979425271  -0.0414415978032149    0.201947542924918 
62 1    0.666225858060102    0.179700603771835    0.499060643666212    0.407450351228011   -0.135630427930284   -0.251019190344291 
63 1    0.831200802177705 -0.000613128826159937    0.502220486602369   -0.363226264654399   -0.147447785223883   -0.315694110729666 
64 1    0.834532216869206    0.181441275729185    0.329962529164277   -0.169913027335114   -0.176177314563234   0.0671914276034419 
65 1    0.669388604160304    0.351381359050492    0.333945533100632  -0.0542459145359991   -0.126687893325249    0.110203980462911 
66 1    0.661216066931502    0.516090600829443    0.506188882624883   -0.123603315024621   -0.295296451525169  -0.0164525844867051 
67 1    0.827532781654213    0.351939278330065    0.491759945128365    0.208477262016283   -0.289780094266178    0.136779094634947 
68 1    0.838113074350758    0.504170838239929    0.318850981587389     0.14013091574049  0.00618169822907864   0.0530810679928161 
69 1    0.677012730228626    0.657643038381252    0.327240469980211   -0.206174267216532    0.257980861351222    0.131683549175937 
70 1     0.66296233604271    0.824123227060454     0.50407199480685    0.240463864901528  -0.0274555328748854   -0.156076115216172 
71 1    0.840499940161862     0.65980736446329    0.501269076049994    -0.31590111925799     0.27976398706134   0.0821375867303474 
72 1    0.833450566796841     0.83554121921577    0.335948327764754   -0.142373124436464 -0.00500370875235395   0.0134468331127325 
73 1 -0.00927177904770815  0.00415173280384806    0.665670684227507   0.0999245414652764   -0.452273857959218    0.193943227756171 
74 1 -0.000595903748603632    0.168500148900193    0.826550324871505   -0.119197671173971   -0.161237004503136    0.328113224377721 
75 1    0.157588654032224 -0.000986884716326131    0.831351983096738    0.168766112897562    0.128685806192836   0.0159110021114333 
76 1    0.160058704201219     0.15388610579862    0.659599317595053    0.175932837355347    0.215855027267937   -0.186637263547955 
77 1 -0.00616448694660221    0.320251976035365    0.662178407308943    0.177778382006535    0.284447743383754   -0.343010600975748 
78 1 -0.00233532944827175    0.485756327918466    0.829332842484177   0.0880312568139849    0.311375097436749   0.0743901995510333 
79 1    0.171637034626656    0.324636101462715     0.82014740467605   -0.539631724732673   0.0697344318633544    0.424651738937902 
80 1    0.158962611351512    0.494858208395613    0.676081884953646   0.0709726497878601    0.174362773051044   -0.512778809924526 
81 1  0.00847880605635964    0.672110116132671    0.670273551289029   -0.101475813336772  -0.0951484339626623   0.0363768231497939 
82 1  -0.0118109908430597    0.832408562508476    0.843979659067372    0.484400723880873 -0.00708923527324155   -0.370153336771962 
83 1     0.16255619413289    0.661330757672658    0.851623773211486    0.146388164044379    0.217702695455258   -0.377327265781657 
84 1    0.172479586097779    0.840604268434618    0.672976720518136   -0.373983207940323   0.0211529350658024    -0.10049337642527 
85 1     0.33760301087068  0.00435044742425816    0.660167617049524    0.089470783528494   0.0197027344726965    0.213996097628922 
86 1    0.326014516539317    0.171095581691247    0.829948208259111    0.312311763080814   -0.449466124335601    0.061241321087951 
87 1    0.497173150212802 -0.00735266767122766    0.839928886492658    -0.10466600632097    0.383302050822477    -0.34817095914847 
88 1    0.517521302637419    0.166249787003153     0.66538334452548   -0.465654783407974  -0.0331090052740218    0.251692891751676 
89 1    0.323487173932108    0.321757545935611    0.664201060512937    0.374187363157247    0.227070646246872   -0.267226165129756 
90 1    0.320111509436515    0.497841244189544    0.836014482838891    0.408718604340772    0.073174306181476    -0.17350810900703 
91 1    0.496828858936397    0.338104097466044    0.835554951381596   -0.109508879983588  -0.0780795043373247   -0.338904515525502 
92 1    0.485226461021625    0.503185863016711     0.68155275403717    0.300082421970249  -0.0591159811855877   -0.254143973716193 
93 1    0.323871395837159    0.673188781412819     0.67700691650839    0.040183887872434   -0.244808057030624  0.00313660093670724 
94 1    0.326863311304578    0.840107969764517    0.836406693100571    0.137713641040521   -0.177201419619175   0.0184867330557297 
95 1    0.488463798751695      0.6725850343704    0.836861510666154    0.175060606422973   -0.169116619906472  -0.0206700800666368 
96 1    0.494113714648165    0.834083512327084    0.670670981246644   0.0312403094540307   0.0948449055139246    -0.11588745471363 
97 1    0.674898546671102 -0.00319100415390494    0.665940103987282   -0.289015574398854  -0.0393564357900306    0.107342531675955 
98 1    0.666343248130943     0.16223699477905    0.836168026275573    0.191167741509621  -0.0067347794515905  -0.0535523295704372 
99 1    0.827310563025094 -0.00933255638676656    0.835312168359451   0.0674329824410654    0.477641455408271  -0.0217872688328885 
100 1    0.827122978815055    0.163766102511318    0.660796634811618  -0.0679106242776096    0.218756614397687     0.25054637202619 
101 1    0.671058548203973    0.339414754085851    0.671550641047702    -0.32894652674805   -0.173710202027868   -0.192975428219919 
102 1    0.671082365220627    0.500641606535055    0.830523067507556   -0.257570908560672   0.0961915367017812  0.00257647719613546 
103 1    0.836461517488033    0.330913736052935    0.831250042894339   -0.275859590181356   -0.343006842967586    0.105463070938615 
104 1    0.831671711153263    0.492039102046533    0.666582917490814    0.278503321057848    0.442187740371192  -0.0547161500165901 
105 1    0.660674104633358    0.672265838083149    0.670473682978013   -0.052015874167184   -0.231472898014982    0.166063186510017 
106 1    0.655928984501884    0.837138967367309    0.834473129707362    0.254660418852231   -0.259811290456331  -0.0656244576363704 
107 1    0.834900376532346    0.664504823747848    0.830105496495889  -0.0266431964749739   -0.113409845536003   0.0363011645971984 
108 1    0.827553698085921    0.827920816823166    0.669704387750471    0.231747716352465   0.0333486885501677   -0.107786314172785 
ITEM: TIMESTEP
200
ITEM: NUMBER OF ATOMS
108
ITEM: BOX BOUNDS pp pp pp
1.1225521307282271e-02 1.2138774478692714e+01
1.1225521307282271e-02 1.2138774478692703e+01
1.1225521307282271e-02 1.2138774478692703e+01
ITEM: ATOMS id type xsu ysu zsu fx fy fz 
1 1 -0.00947115923275987 -0.000959510594384483 -0.00139426755970362    0.267537859398865    0.069107017096993    0.154202510771418 
2 1   0.0109861698761051    0.174603015383013    0.165782596823306   -0.449042554037967     -0.4330848207102   0.0596919684442944 
3 1    0.167467180619155 -0.00672506239476434    0.171537358653268   -0.378787895622769    0.228243465385925   -0.125192833334316 
4 1    0.165953531605396     0.15935527499289    0.011124045955512    0.182865527249098    0.171006156689909   -0.455182189736833 