LAMMPS (17 Nov 2016)
units metal
dimension 3
boundary p p p
atom_style atomic
read_data structure.inp
  orthogonal box = (0 0 0) to (12.15 12.15 12.15)
  1 by 1 by 1 MPI processor grid
  reading atoms ...
  108 atoms
include potential.inp
pair_style eam/alloy
pair_coeff * * Al_lammps_2.eam Al
fix 1 all npt temp 200 200 1.0 iso 0.0 0.0 1.0
variable  dumptime equal 100
dump 1 all custom ${dumptime} dump.out id type xsu ysu zsu fx fy fz
dump 1 all custom 100 dump.out id type xsu ysu zsu fx fy fz
dump_modify 1 sort id format line "%d %d %20.15g %20.15g %20.15g %20.15g %20.15g %20.15g"
thermo_style custom step temp pe etotal pxx pyy pzz vol
thermo_modify format  float %20.15g
thermo 100
velocity all create 400 1538 dist gaussian
run 10000
Neighbor list info ...
  1 neighbor list requests
  update every 1 steps, delay 10 steps, check yes
  max neighbors/atom: 2000, page size: 100000
  master list distance cutoff = 8.5
  ghost atom cutoff = 8.5
  binsize = 4.25 -> bins = 3 3 3
Memory usage per processor = 3.93753 Mbytes
Step Temp PotEng TotEng Pxx Pyy Pzz Volume 
       0                  400    -362.821576160678    -357.289241954678    -599.663235502465    -535.167982410415     17.9476969940623          1793.613375 
     100     169.568574447361    -359.637183714303    -357.291908652609       -13507.5815766    -14498.3163240003    -13822.8154160143     1856.73923358467 
     200      177.38252416829    -359.810536976299    -357.357188461292     15886.7614174614     14065.6646232918     15010.7853315563     1783.68889916597 
     300     157.755787606594    -359.613250355727    -357.431356005801    -5215.09987025243    -6747.96258788418    -5301.63105246251     1835.49206281055 
     400     186.155797738072    -360.019514702698    -357.444824484019     2391.59974816695     2063.70006919894     2493.05201532788     1811.11845677643 
     500     170.402513818832      -359.7660707226    -357.409261582629     4210.37608276269     1654.29852108988     4186.45628899912     1811.87323881225 
     600      189.91252067518    -359.981204491895    -357.354555656198    -6209.09590842926    -5554.69147975913    -5460.59767863601      1829.9393243064 
     700     201.860870175861    -360.115299538311    -357.323395045994     3243.80680781924     2024.98663117182     4187.17879331205     1809.40117315879 
     800      181.15813609666    -359.798575262902    -357.293006880345    -1935.81339721597    -1852.50738978852    -789.193050865186     1822.64404940806 
     900     187.306468137233    -359.854293209457    -357.263688257756     44.9738328079586      939.97270468975     696.113815712457     1817.67541222052 
    1000     179.876194018047    -359.705213227738    -357.217375175211     1891.64203744037     2804.38154716041     2159.47892409157     1814.97033198868 
    1100     182.764951949821    -359.698281009355     -357.17048902103    -889.478231982629    -146.713042276997    -798.709241306433     1822.51726725372 
    1200     184.558935265662    -359.675128063384    -357.122523786902      1030.8607059898     2558.31821072252     3202.67466803243     1815.50326700719 
    1300      186.52122499822    -359.648936789715    -357.069192406709    -1428.43363002254     241.743322531813     837.639298018781     1820.54669085319 
    1400     189.202905289099    -359.632345241359    -357.015510979346     588.364196950145     1226.26250206883      2262.6383642755     1817.46708810033 
    1500     181.605730852603    -359.474394242857    -356.962635250853    -417.633504472622      1258.3759886401     1289.41838289299      1821.0082878715 
    1600     209.610196095473    -359.809757158218    -356.910673013754     -355.54651385551    -14.4245870884986    -1208.59899915607     1821.30908844047 
    1700     222.672381381132    -359.941446612286     -356.86170153167    -1419.03697570652    -1615.83091313354    -1006.19414179518     1821.89978551599 
    1800     230.765699901192    -360.010401252631    -356.818718814794    -3072.42095766841    -3351.17646361715    -2796.08743817386      1825.9868744921 
    1900     196.152556790883    -359.490127005925    -356.777173257103     2475.14630022341     2267.40755874257     2716.18515338975      1816.0887372366 
    2000     190.146046407059    -359.375894709455    -356.746016017771    -1391.63954086363    -278.691219794546    -416.885898270196     1824.72357828568 
    2100     204.485295894037    -359.546175546175    -356.717973053428     1105.35225167157     2312.05578724801     1511.12422240594     1817.89756043264 
    2200     197.076902429285     -359.42581660802    -356.700078386715    -2008.89594624744    -847.813110787434    -1183.08820215563     1827.52031269919 
    2300     216.789930150674    -359.682583498803     -356.68419763358     1284.06212039356     943.917225138029     2040.55094004167     1818.94744240641 
    2400     212.157873258077    -359.614071737004    -356.679751088759    -858.354988250074    -1301.64403038617    -459.775996287459     1824.48905036778 
    2500     206.894568900028    -359.535607358463     -356.67408260706    -841.343884188148    -831.686135674862     407.047047649924     1824.91062780366 
    2600     208.907200964374    -359.567404155458    -356.678043021021     2276.61232144142     3382.19385360269      2763.6954049335     1816.32704129989 
    2700     209.901957848136    -359.574135415146    -356.671015961872    -6020.78293511006     -4822.0933744351    -5947.41553388805     1836.99352856271 
    2800     219.208949179994    -359.698382732673    -356.666539813149     8233.67373215455     8753.09743793917     5277.80299489877     1804.79389548173 
    2900     213.117784755422     -359.63570472953    -356.688107703256    -7135.64466910598     -5680.3380397259    -6912.73602839637     1838.93349278191 
    3000     232.565297668692    -359.921135471363     -356.70456309281     496.706755776923     1163.79959674485     1478.94438651578     1816.23119474456 
    3100      203.01555937442    -359.512365045905    -356.704490237212     375.786406143965     1176.86899475189     -991.32415276181     1822.51925902084 
    3200     207.691405051163    -359.580285503277    -356.707739842135    -2329.79964046796    -1463.47867491939    -975.922201329288     1825.65910657896 
    3300     188.270344479436    -359.309093285024    -356.705157118176     4917.72270269275     5599.38743325323     4486.84507308075     1814.03406433033 
    3400     195.710415556815    -359.428054596772    -356.721216030634    -3976.76878864338     -2002.0343867267    -2421.45154911666     1831.16868891288 
    3500     210.354612749843    -359.655777127275     -356.74639707851     2513.91589949688     1712.89091145942     1879.29206811269     1817.27381699833 
    3600     220.445832304685    -359.816585929588    -356.767635883014    -861.922749197752     -394.28767853873      1210.0332322922     1820.47793243193 
    3700     216.259580978778    -359.766438323562    -356.775387630502     -3422.8739256403    -2708.46457266919    -5041.29059414795     1830.22469365466 
    3800     217.059220882016    -359.789699987286    -356.787589606253      3499.6753852994     4614.54489286781     2754.21012704598     1812.14975083264 
    3900     193.487702607198    -359.476531757938    -356.800435169002    -4791.78453932132    -3726.93534158697    -4948.22641161078     1835.06161937452 
    4000     211.733182305425    -359.747080275909    -356.818633458376     5055.45647036105      5259.6257722329     4170.87846879401     1808.36841308999 
    4100     214.012016358897    -359.800249775895    -356.840284779402    -5406.94999307359    -6068.64610128179    -5396.16338933505     1834.63639951995 
    4200     211.906841152545    -359.798943911787    -356.868095247303     3723.01605422301     3720.02242899662     3928.98560841243     1810.28687628317 
    4300     224.266349222043    -360.009358802253    -356.907567814614    -4213.35444477859    -4603.33817003305    -5488.03375622699      1829.5308080723 
    4400     225.084452147725     -360.05444733799    -356.941341303351    -3393.90540301284     -3344.8101569711    -3370.80499073102     1824.97799328537 
    4500     209.485789154144    -359.826361057891     -356.92899756537     4470.02340058005     5726.09566917476     4811.63562049728     1808.14193637613 
    4600     183.138352936511    -359.475862202083     -356.94290576613    -5680.77562699091    -4360.61632481442    -5806.83425026646     1836.34311985664 
    4700     200.379800396399    -359.739521244504    -356.968101184693     7363.16339021379     7403.50334687603     8480.87724789241     1801.95181491581 
    4800      188.44657854878    -359.615199417409    -357.008825786136    -5817.91514683943    -3932.85360493914    -5504.99713446002     1834.18130155831 
    4900     195.635646174756    -359.767889609025    -357.062085165911     2627.90035977719     2938.06497229407     2729.84881652291     1814.44246213078 
    5000     184.959405669158    -359.637345411577    -357.079202294815     2336.17993681616      3185.7716977269     2398.59991256116     1816.14441951586 
    5100     191.166886099166     -359.71603711785    -357.072039360298    -3157.32220376048    -3906.84678554126    -3883.98648742446     1830.77746875959 
    5200     193.940663973677    -359.762158564967    -357.079797141877     5330.32535966637     4757.58516177245     5588.49546586358      1808.2789428446 
    5300     204.740888263697    -359.926174940222    -357.094437391452    -5167.18814606732    -5545.59539710395    -5238.22367025583     1832.30891698347 
    5400     186.546468207451     -359.69367271957    -357.113579201889     3986.45300981143     4697.34112531622     5362.85283505208     1809.29846645215 
    5500     205.251706908195    -359.982110201245    -357.143307603825    -2591.69368428061    -3317.19410790258    -2612.86657431994     1825.06548264355 
    5600     190.094748580816     -359.78719641213    -357.158027212243    -688.072450881045    -857.343690348435    -1229.89109297734     1821.13644749215 
    5700     184.288036365782    -359.720397859452    -357.171540341094     2677.02444481542     3729.68852546623     3270.04292069312     1813.60401036116 
    5800     196.889160521215    -359.913278064105    -357.190136470249    -2242.07798032907    -1495.54434942965    -1447.93322525757     1823.84688774173 
    5900     199.270987560395    -359.963771158297    -357.207686906438    -125.527295573296     797.100723490856     145.304583522963     1817.55784864733 
    6000     201.138199398628       -360.007788113    -357.225878761335    -2162.27069895483      14.059860089206    -1657.32704877485     1820.68535572773 
    6100     205.217494022293    -360.084614017844    -357.246284613221     -2564.7196504833     456.012181600832    -455.590505653272     1818.90038638826 
    6200     189.457007314609    -359.885800410351    -357.265451705019    -557.378942337067     1774.56026195419    -280.858401850586      1818.2177651127 
    6300     177.932625997371    -359.748264142991    -357.287307260069     1504.72949762699     1574.83377830389     1312.04223588657     1816.34902460219 
    6400     179.421310182066    -359.793440347076    -357.311893718062     23.8433395626547     479.645479224711    -3.63603919233896     1819.87722011812 
    6500     167.646242907963    -359.660722322208     -357.34203471184      3186.4431569811     2680.33733551257     2459.13394642499     1814.20331102911 
    6600     202.204832612798    -360.175359109223    -357.378697329017    -48.4324712664908    -928.246717076678    -488.462266653625      1816.6518580966 
    6700     170.685872059836    -359.781899994281    -357.421171773087     -906.93930740504    -127.921069225706     316.587653037334     1820.98722283015 
    6800     193.071341475881    -360.140389364277    -357.470051397663     4154.72960570906     3201.01362150333     3324.62028196642     1807.40888271922 
    6900     201.368057059224    -360.287689159795    -357.502600684634    -6323.91562265946    -6180.85931781609       -7634.76369829     1830.75525004765 
    7000     187.236810239163    -360.150293224954    -357.560651700183     3640.58445928768     3610.68099566331     3729.01857999687     1807.02199082684 
    7100     159.590810213575    -359.811483982896    -357.604209737126    -1577.08991728879    -1434.38144414468    -2229.85642309251     1823.14096134394 
    7200     167.638112477069    -359.981640863466    -357.663065703751     3065.22383860677     3643.55847042726     2099.97742498631     1809.61481746108 
    7300     191.633363551796    -360.364364036115    -357.713914505644    -1096.34929727177    -1523.19955330013    -856.699952931069     1815.77796807293 
    7400     157.358430340214    -359.931623978856    -357.755225411922    -1259.92224399031    -1243.51747797031    -611.708202460435     1819.66687351402 
    7500     177.242990939548    -360.233209827509    -357.781791173638     4917.76806039795     4421.07078574552     4465.49184471564     1804.20350575959 
    7600     166.361527454102    -360.097771412328    -357.796852490086    -4450.75505036094    -5228.07760212343    -5504.63643918385     1828.39758002796 
    7700     180.001880750218    -360.308265880885    -357.818689475838     4868.55731428359     4821.63013167468     4480.73865209501     1802.68641835839 
    7800     170.902210656285    -360.201812623191    -357.838092258454    -4167.28156696312    -4501.59084544597    -4721.60923386681     1825.36428605416 
    7900     178.311365520453    -360.326154159882    -357.859958992914     2375.30751508106     1682.33344132146     1670.95956145037     1808.48460448019 
    8000     166.517043226311     -360.15932042474    -357.856250589433     125.777941288706     478.540060373004     208.066969156432     1814.68973643273 
    8100     166.887503677961    -360.150852332313    -357.842658719434    -46.6381143700006    -270.647456555596    -38.5193082384916     1814.96606217865 
    8200     163.822425569554    -360.095385403326    -357.829584381606     442.595925753224     377.737202043767     1065.65829372817     1815.07952661691 
    8300      161.65184505079    -360.043036108939    -357.807256029346     688.327785612479     912.065152359867     874.205846564832     1813.81355492982 
    8400     190.112361356172    -360.409056485109    -357.779643685823    -318.623621998889    -816.844061301645    -1208.38733312029     1814.78955698583 
    8500     178.540894175602    -360.214155622301    -357.744785882257    -740.307115267143    -1250.29327786566     103.441822684436     1816.44671148321 
    8600     191.167755755446    -360.345113855039    -357.701104069413     738.779749960675     993.542203198725    -262.932451233554     1812.80500839529 
    8700     181.028406217634    -360.152041905679    -357.648267795741    -2288.18392060684    -2890.97448326671     -1433.4882354956     1821.19989183354 
    8800     178.128484827786     -360.05946706904    -357.595801294851     1746.02111855491     1367.23127346381     1737.33559988118     1813.47423261177 
    8900     181.581656518782     -360.04871223334    -357.537286209487      158.60329847239    -36.1852638978463     880.319404585132     1816.14161519051 
    9000     177.968504809967    -359.937113262186    -357.475660145308    -1326.79589674993    -1067.57501032987    -277.386220217917     1820.32628582458 
    9100     180.655341814649    -359.913143030697    -357.414528713153     2763.45723009103     2846.51836625751     3168.72262820819     1810.96307753187 
    9200     185.762685311276    -359.928286224846    -357.359033079481     -4025.1792131719    -2579.67397250865    -2726.87920805846     1826.30739736525 
    9300      199.27831269229    -360.064920775339    -357.308735210785     2054.05498259143     1874.10267430746     2429.84099528185      1811.2259386194 
    9400     186.024713071953     -359.83822959324    -357.265352385017    -2680.94079423364    -2830.83137537109     -1942.3177724326     1825.84218854054 
    9500      199.76576428604    -359.989694717162    -357.226767289793     2785.86813064277     3256.61954761735     4106.93561485564     1809.10673462825 
    9600     183.605147552188    -359.734239867486    -357.194827271984    -3297.22270958197    -2865.08930031063    -2992.65242894901     1827.46861696558 
    9700     193.643146174022    -359.844708444645    -357.166461941305     1908.26724320024     2679.15414556041     3424.47772622342     1811.85162767065 
    9800     205.842889919667    -359.986655936373    -357.139676783962    -2576.77003647358    -2697.77731243585    -1573.30671191432     1824.43590452952 
    9900     190.565109149407    -359.754887961971    -357.119213282428     925.581232440928     1191.67106852672     2595.20965276647     1816.56189982876 
   10000      193.87946649135    -359.777887663279    -357.096372652501     267.490369816663     1297.64479452616     1523.51471178135     1819.05882995695 
Loop time of 2.66368 on 1 procs for 10000 steps with 108 atoms

Performance: 324.364 ns/day, 0.074 hours/ns, 3754.209 timesteps/s
99.9% CPU use with 1 MPI tasks x no OpenMP threads

MPI task timing breakdown:
Section |  min time  |  avg time  |  max time  |%varavg| %total
---------------------------------------------------------------
Pair    | 2.4815     | 2.4815     | 2.4815     |   0.0 | 93.16
Neigh   | 0          | 0          | 0          |   0.0 |  0.00
Comm    | 0.069236   | 0.069236   | 0.069236   |   0.0 |  2.60
Output  | 0.033679   | 0.033679   | 0.033679   |   0.0 |  1.26
Modify  | 0.060822   | 0.060822   | 0.060822   |   0.0 |  2.28
Other   |            | 0.01841    |            |       |  0.69

Nlocal:    108 ave 108 max 108 min
Histogram: 1 0 0 0 0 0 0 0 0 0
Nghost:    1580 ave 1580 max 1580 min
Histogram: 1 0 0 0 0 0 0 0 0 0
Neighs:    7560 ave 7560 max 7560 min
Histogram: 1 0 0 0 0 0 0 0 0 0

Total # of neighbors = 7560
Ave neighs/atom = 70
Neighbor list builds = 0
Dangerous builds = 0
Total wall time: 0:00:02
