ITEM: TIMESTEP
0
ITEM: NUMBER OF ATOMS
108
ITEM: BOX BOUNDS pp pp pp
0.0000000000000000e+00 1.2150000000000000e+01
0.0000000000000000e+00 1.2149999999999990e+01
0.0000000000000000e+00 1.2149999999999990e+01
ITEM: ATOMS id type xsu ysu zsu fx fy fz 
1 1                    0                    0                    0 -5.55111512312578e-16 2.32730501537048e-14 2.34534613952064e-14 
2 1                    0    0.166666666666629    0.166666666666629 -1.38777878078145e-16 9.71445146547012e-17 2.63677968348475e-16 
3 1    0.166666666666629                    0    0.166666666666629  1.0547118733939e-15 2.37310171513627e-14  2.4980018054066e-16 
4 1    0.166666666666629    0.166666666666629                    0 1.13797860024079e-15 1.21430643318376e-15 2.44734787990808e-14 
5 1                    0    0.333333333333371                    0 -3.19189119579733e-16 -7.63278329429795e-17 2.19685380997703e-14 
6 1                    0                  0.5    0.166666666666629 -6.38378239159465e-16 3.13192126313172e-16 5.27355936696949e-16 
7 1    0.166666666666629    0.333333333333371    0.166666666666629 1.94289029309402e-16 -9.08995101411847e-16 3.59087759527199e-16 
8 1    0.166666666666629                  0.5                    0 1.49880108324396e-15 1.78781550111071e-15 2.45278481498992e-14 
9 1                    0    0.666666666666629                    0 -5.27355936696949e-16 9.29811783123569e-16 2.32938668354166e-14 
10 1                    0    0.833333333333371    0.166666666666629 -5.96744875736022e-15 -2.47198095326695e-14 1.11022302462516e-15 
11 1    0.166666666666629    0.666666666666629    0.166666666666629 2.05391259555654e-15 1.26634813746307e-16 -4.66640615037761e-16 
12 1    0.166666666666629    0.833333333333371                    0 2.88657986402541e-15 -2.39183672867682e-14 2.31065167000111e-14 
13 1    0.333333333333371                    0                    0 -1.00855196590033e-15 2.29551010903599e-14 2.30938688040427e-14 
14 1    0.333333333333371    0.166666666666629    0.166666666666629 -1.46917525888079e-15 3.33371839248559e-16 2.90003752349138e-16 
15 1                  0.5                    0    0.166666666666629 2.07305554016449e-15 2.38018595989393e-14 1.52655665885959e-16 
16 1                  0.5    0.166666666666629                    0 1.95291916318951e-15 1.02695629777827e-15 2.45512838574838e-14 
17 1    0.333333333333371    0.333333333333371                    0 -3.11816544806831e-16 -5.53901949263899e-16 2.32203071061452e-14 
18 1    0.333333333333371                  0.5    0.166666666666629 -3.60307486971245e-16 1.07339308014863e-15 -4.15988044791954e-16 
19 1                  0.5    0.333333333333371    0.166666666666629 1.41214510655716e-15 -1.12757025938492e-16 3.33348122326035e-16 
20 1                  0.5                  0.5                    0 2.86648146625296e-15 1.02176906800928e-15 2.46263614697966e-14 
21 1    0.333333333333371    0.666666666666629                    0 -2.53922859301536e-15 1.48466579742018e-15 2.38161947845386e-14 
22 1    0.333333333333371    0.833333333333371    0.166666666666629 -2.80542733141487e-15 -2.47379631427951e-14 -4.12911621127526e-17 
23 1                  0.5    0.666666666666629    0.166666666666629 -3.6120664305677e-16 -2.60208521396521e-16 1.97758476261356e-16 
24 1                  0.5    0.833333333333371                    0 -5.8261636617582e-16 -2.42583730880597e-14 2.46768886791662e-14 
25 1    0.666666666666629                    0                    0 1.81799020282369e-15 2.40953090813179e-14 2.42913328341032e-14 
26 1    0.666666666666629    0.166666666666629    0.166666666666629 1.04083408558608e-16 4.04190569902596e-16  4.0766001685455e-16 
27 1    0.833333333333371                    0    0.166666666666629 2.08166817117217e-16 2.24299745443801e-14 2.22044604925031e-16 
28 1    0.833333333333371    0.166666666666629                    0 1.94289029309402e-16 1.23512311489549e-15  2.3189783426858e-14 
29 1    0.666666666666629    0.333333333333371                    0 1.08246744900953e-15 1.22921421305544e-16 2.34395836073986e-14 
30 1    0.666666666666629                  0.5    0.166666666666629 1.66533453693773e-16                    0 9.71445146547012e-17 
31 1    0.833333333333371    0.333333333333371    0.166666666666629 -1.38777878078145e-16 -5.70425867998936e-17 3.88578058618805e-16 
32 1    0.833333333333371                  0.5                    0 2.77555756156289e-16 1.26287869051112e-15 2.33493779866478e-14 
33 1    0.666666666666629    0.666666666666629                    0 1.60982338570648e-15 4.77048955893622e-16 2.45012343746964e-14 
34 1    0.666666666666629    0.833333333333371    0.166666666666629 9.97465998686664e-16 -2.32730501537048e-14 9.71445146547012e-17 
35 1    0.833333333333371    0.666666666666629    0.166666666666629 2.66453525910038e-15 1.38777878078145e-15 1.42941214420489e-15 
36 1    0.833333333333371    0.833333333333371                    0 1.66533453693773e-15 -2.39530617562878e-14 2.40224506953268e-14 
37 1                    0                    0    0.333333333333371 -2.77555756156289e-16 2.30891694652513e-14 -8.88178419700125e-16 
38 1                    0    0.166666666666629                  0.5 -5.68989300120393e-16 1.02695629777827e-15 9.47159017883337e-16 
39 1    0.166666666666629                    0                  0.5 1.41553435639707e-15 2.41959230429245e-14 1.55812049460607e-15 
40 1    0.166666666666629    0.166666666666629    0.333333333333371 8.32667268468867e-17 3.90312782094782e-16 -6.24500451351651e-16 
41 1                    0    0.333333333333371    0.333333333333371 -9.71445146547012e-17 6.93889390390723e-17 1.17961196366423e-16 
42 1                    0                  0.5                  0.5 -4.96824803519758e-15 1.97201467395242e-15 8.92854041568969e-16 
43 1    0.166666666666629    0.333333333333371                  0.5 -1.72084568816899e-15 -2.53269627492614e-16 1.02348685082632e-15 
44 1    0.166666666666629                  0.5    0.333333333333371 -1.84574577843932e-15 7.70252239692037e-16 -2.0122792321331e-16 
45 1                    0    0.666666666666629    0.333333333333371 -5.60662627435704e-15 6.24500451351651e-17 2.63677968348475e-16 
46 1                    0    0.833333333333371                  0.5 -5.32907051820075e-15 -2.64267774330307e-14 1.73472347597681e-15 
47 1    0.166666666666629    0.666666666666629                  0.5 5.55111512312578e-17 5.06539254985228e-16 7.52869988573934e-16 
48 1    0.166666666666629    0.833333333333371    0.333333333333371 -1.20736753927986e-15 -2.4605317783255e-14 -9.35015953551499e-16 
49 1    0.333333333333371                    0    0.333333333333371 -3.76163943743846e-16  2.4120791220503e-14 -1.22018484183771e-15 
50 1    0.333333333333371    0.166666666666629                  0.5 -3.75540527494667e-16 -1.10700429942559e-16 1.48073217641313e-15 
51 1                  0.5                    0                  0.5 2.75899637337818e-15  2.4495620240322e-14   7.950827225333e-16 
52 1                  0.5    0.166666666666629    0.333333333333371 1.43258134858906e-15  2.4980018054066e-16 -3.46944695195361e-16 
53 1    0.333333333333371    0.333333333333371    0.333333333333371 -9.20311461587164e-16 -1.06593336587912e-15 -9.09713385351119e-16 
54 1    0.333333333333371                  0.5                  0.5 7.46581615973518e-16 1.84680401059794e-15 6.91422830448318e-16 
55 1                  0.5    0.333333333333371                  0.5 2.33746534497939e-15 -1.21159592775255e-17 6.28417131699754e-16 
56 1                  0.5                  0.5    0.333333333333371 2.38239874876534e-15 4.31658154316159e-16 1.36907629330607e-16 
57 1    0.333333333333371    0.666666666666629    0.333333333333371 -1.19655262260931e-15  6.7776527120679e-16 -2.93649382154121e-16 
58 1    0.333333333333371    0.833333333333371                  0.5 -1.38821246165044e-15 -2.52308109572209e-14 1.80403448798473e-15 
59 1                  0.5    0.666666666666629                  0.5 4.76981193257842e-16 -1.52655665885959e-16 -6.29955343531968e-17 
60 1                  0.5    0.833333333333371    0.333333333333371 -4.78770126842443e-16 -2.48566629518915e-14 -9.68070567285151e-16 
61 1    0.666666666666629                    0    0.333333333333371 1.00613961606655e-15 2.43693953905222e-14 -5.13478148889135e-16 
62 1    0.666666666666629    0.166666666666629                  0.5 2.91433543964104e-16 4.61436444609831e-16 5.13478148889135e-16 
63 1    0.833333333333371                    0                  0.5 2.42861286636753e-16 2.29399832463173e-14 1.08940634291343e-15 
64 1    0.833333333333371    0.166666666666629    0.333333333333371 -7.63278329429795e-17 2.63677968348475e-16 -7.97972798949331e-17 
65 1    0.666666666666629    0.333333333333371    0.333333333333371 8.35343892582191e-17 5.67579837296162e-17 4.27074012005618e-17 
66 1    0.666666666666629                  0.5                  0.5 6.93889390390723e-16 8.15320033709099e-16 -4.63171168085807e-16 
67 1    0.833333333333371    0.333333333333371                  0.5 1.81799020282369e-15 1.30227588695381e-15 2.24820162486594e-15 
68 1    0.833333333333371                  0.5    0.333333333333371  1.8249290967276e-15 2.11983208764366e-15 1.16573417585641e-15 
69 1    0.666666666666629    0.666666666666629    0.333333333333371 1.52829138233557e-15 -3.05311331771918e-16 4.22893057377971e-16 
70 1    0.666666666666629    0.833333333333371                  0.5 2.24820162486594e-15 -2.46434816997265e-14 7.56339435525888e-16 
71 1    0.833333333333371    0.666666666666629                  0.5  4.3159920082303e-15 2.70616862252382e-16 1.38777878078145e-15 
72 1    0.833333333333371    0.833333333333371    0.333333333333371 3.36932765758816e-15 -2.59568706589483e-14 -8.46030060244751e-16 
73 1                    0                    0    0.666666666666629 -5.96744875736022e-16 2.25514051876985e-14 -1.38777878078145e-17 
74 1                    0    0.166666666666629    0.833333333333371 -6.43929354282591e-15 3.88578058618805e-15 -2.51881848711832e-14 
75 1    0.166666666666629                    0    0.833333333333371 3.40005801291454e-15 1.81504117291453e-14 -2.48481790698918e-14 
76 1    0.166666666666629    0.166666666666629    0.666666666666629 1.80411241501588e-15 1.47278023110431e-15 3.92047505570758e-16 
77 1                    0    0.333333333333371    0.666666666666629 -5.68989300120393e-15 -2.92127433354494e-15 7.49400541621981e-16 
78 1                    0                  0.5    0.833333333333371 -4.77395900588817e-15 -1.29398851659787e-15 -2.62290189567693e-14 
79 1    0.166666666666629    0.333333333333371    0.833333333333371 -1.4432899320127e-15  -2.468511506315e-15 -2.52593085336983e-14 
80 1    0.166666666666629                  0.5    0.666666666666629 -4.16333634234434e-16 -4.45823933326039e-16 5.20417042793042e-18 
81 1                    0    0.666666666666629    0.666666666666629 -5.41233724504764e-15 1.33226762955019e-15 -5.41233724504764e-16 
82 1                    0    0.833333333333371    0.833333333333371 -5.28743715477731e-15 -2.34950947586299e-14 -2.61700383585861e-14 
83 1    0.166666666666629    0.666666666666629    0.833333333333371 9.99200722162641e-16 1.73298875250083e-15 -2.37032615757471e-14 
84 1    0.166666666666629    0.833333333333371    0.666666666666629 1.04083408558608e-15 -2.31203944878189e-14 1.35828848168984e-15 
85 1    0.333333333333371                    0    0.666666666666629 -2.66261080024421e-15 2.30807025239105e-14 5.54826909242301e-16 
86 1    0.333333333333371    0.166666666666629    0.833333333333371 -2.94892148894332e-15 1.55498647270123e-15 -2.5147415481366e-14 
87 1                  0.5                    0    0.833333333333371 -5.4917550541822e-16 2.00413517975184e-14 -2.52436960224145e-14 
88 1                  0.5    0.166666666666629    0.666666666666629 -3.36164961004144e-16 1.85962356624714e-15 -2.20309881449055e-16 
89 1    0.333333333333371    0.333333333333371    0.666666666666629 -1.4528851212392e-15 -2.47701232897364e-15 1.37338260880991e-15 
90 1    0.333333333333371                  0.5    0.833333333333371 -1.37414493846244e-15 -7.06293340870315e-16 -2.46439729788359e-14 
91 1                  0.5    0.333333333333371    0.833333333333371 -6.83467497007706e-16 -2.24486770318555e-15 -2.54184897414099e-14 
92 1                  0.5                  0.5    0.666666666666629 2.06167819361697e-16 -1.31887095645641e-15 -4.64905891561784e-16 
93 1    0.333333333333371    0.666666666666629    0.666666666666629 -3.2172886316878e-15 2.08485979131742e-15 2.96309065608499e-16 
94 1    0.333333333333371    0.833333333333371    0.833333333333371 -4.51972714896748e-15 -2.23702553334669e-14 -2.50847621483235e-14 
95 1                  0.5    0.666666666666629    0.833333333333371 -3.34801630863524e-15 1.26981758441502e-15 -2.38004060904018e-14 
96 1                  0.5    0.833333333333371    0.666666666666629 -2.91433543964104e-15 -2.34048891378791e-14 6.52256026967279e-16 
97 1    0.666666666666629                    0    0.666666666666629 1.85962356624714e-15 2.37518338330744e-14 -3.22658566531686e-16 
98 1    0.666666666666629    0.166666666666629    0.833333333333371 1.63410951437015e-15 2.10595429983584e-15 -2.38212227721135e-14 
99 1    0.833333333333371                    0    0.833333333333371 1.98105420956551e-15  1.9744622603568e-14 -2.51465515077598e-14 
100 1    0.833333333333371    0.166666666666629    0.666666666666629 2.81719092498633e-15 3.80251385934116e-15 1.60982338570648e-15 
101 1    0.666666666666629    0.333333333333371    0.666666666666629 2.00707506170517e-15 -2.26685797965771e-15 6.03683769639929e-16 
102 1    0.666666666666629                  0.5    0.833333333333371 2.50494069931051e-15 -1.88564441838679e-15 -2.41300035508374e-14 
103 1    0.833333333333371    0.333333333333371    0.833333333333371 3.46647217224286e-15 -3.2607854675952e-15 -2.65882557940952e-14 
104 1    0.833333333333371                  0.5    0.666666666666629 3.60822483003176e-15 -3.57353036051222e-16 -1.2490009027033e-16 
105 1    0.666666666666629    0.666666666666629    0.666666666666629 3.06005221162309e-15 4.30211422042248e-16 -8.06646416329215e-16 
106 1    0.666666666666629    0.833333333333371    0.833333333333371  3.6498581934552e-15 -2.2310820725624e-14 -2.43940609899462e-14 
107 1    0.833333333333371    0.666666666666629    0.833333333333371 3.35322047906317e-15 1.87350135405495e-15 -2.52957377266938e-14 
108 1    0.833333333333371    0.833333333333371    0.666666666666629 4.13558076672871e-15 -2.48100151534203e-14 8.60422844084496e-16 
ITEM: TIMESTEP
100
ITEM: NUMBER OF ATOMS
108
ITEM: BOX BOUNDS pp pp pp
-6.2558485815848996e-02 1.2212558485815862e+01
-6.2558485815848996e-02 1.2212558485815851e+01
-6.2558485815848996e-02 1.2212558485815851e+01
ITEM: ATOMS id type xsu ysu zsu fx fy fz 
1 1  -0.0147017574626034  0.00192483975808955 -0.00708993404538205   -0.109813397583894    -0.47270144037957    0.335978531215198 
2 1   0.0165006607569467    0.158590986137369    0.177240997622562   -0.289038693481038    0.183333945839638    -0.10386343334027 
3 1    0.159412494351386 -0.00884083204431363    0.135314992214489   -0.272165228266502    0.346921508238242     0.07536432246818 
4 1    0.157227499301371    0.153138880480014  -0.0341286125932356   -0.305634666267509    0.705690464382273     1.18757290697999 
5 1 -0.00466289061404268    0.354535018901515   0.0136194806826779    0.128498661032384   -0.888492593990331    -0.20897491441726 
6 1 -0.00657344323747111    0.507221921768974     0.16870782941885    0.144776649522336   -0.534998623194735    0.318760965123859 
7 1    0.169989864308377    0.353395106732705    0.184693241277273   -0.237631948468851   -0.266067226976262   -0.585571108869362 
8 1    0.157725047808071    0.507517451802869   0.0131066659263297    0.578604396182365   -0.482040991495782   -0.500457947976911 
9 1 -0.00510474939972028    0.656073451445081  0.00330852847343976   -0.738334785991879   -0.216222081511184   -0.430510223702534 
10 1  -0.0260733147475776    0.815293125622134      0.1371908046508    0.851713020209819    0.931999045277137    0.915383101594344 
11 1    0.160242385608171    0.652410734524437    0.170301619306883    0.450082503741172    0.468793832386211   -0.389597558533489 
12 1    0.155077456609206    0.808470865035474  0.00616363796598307    0.329172224078055    0.333720983362081   0.0958402106939596 
13 1    0.310177611388667  -0.0265914248009267  -0.0228193919884347  -0.0132958755832565    0.682948287220932    0.018846160810976 
14 1    0.301080026065733    0.168389831999434    0.147343615064301    0.358436458021956    0.135557447480614   -0.442472044930033 
15 1    0.484680898344095  0.00925928871924953    0.139589774404953  -0.0345676455670536   -0.137520275250994  -0.0488300598214466 
16 1    0.506529311041959    0.188964855660288   0.0140235943968037   -0.666894627644289   -0.510326055247713   -0.403874198318133 
17 1    0.343541210055037    0.343716181036598   0.0024627179880099   -0.494677431571527   -0.317944441509729    0.318701591030903 
18 1    0.333845057397525    0.507951149256087    0.168579404485968    0.466894036632129   -0.192622880198636  -0.0432926279840151 
19 1    0.505108395180628       0.320865731862    0.184287415479616   -0.289213822605239    0.679485800797066     0.20070331639322 
20 1    0.521414514272806     0.48790899396397 -0.00305238290218313   -0.333609096011801    0.548080711304505    0.666591742347323 
21 1    0.342211605133343     0.64508909495089  -0.0123705513720438   -0.148014212783413    0.282811579767157    0.646166078831004 
22 1    0.349369808368806    0.841542377000792    0.161000033740947   -0.280684091787631   -0.129254155166052  -0.0577572996083814 
23 1    0.494998949359001    0.683795014898919    0.154620139950225    0.275603759645246   -0.526078395550639   0.0774846005287799 
24 1    0.472582794770915    0.835910331173864  -0.0283887192177303     1.24833217603805   -0.330348436167876    0.534292484420594 
25 1    0.660840875189024   0.0182771715034278  0.00663621083390353 -0.00198817812098268   -0.302545479182247   -0.385119051279975 
26 1    0.647589342567244    0.151730465691912    0.186318164722479    0.569896262362101    0.509149967867693  -0.0854115302147088 
27 1    0.816160539851808  -0.0115309302832998    0.173400996485043     1.22918379732219    0.918732024298472  -0.0349310717174825 
28 1    0.839087224475065    0.170290903163163   0.0120394745699741   -0.301808333648067    0.132655333856735    0.394436042307976 
29 1     0.67537125068975    0.323664001030011   0.0158901099063087    0.161663426266999   0.0460614317987463  -0.0181291951803014 
30 1    0.679053703206591    0.498093967433761    0.168444807462492   -0.984143161958646   -0.235636831866604    0.807326363451986 
31 1    0.833677474893989    0.321075840754702    0.183027658683272    0.162841715932654    0.163549359264346   -0.347522717993644 
32 1    0.821342500222045    0.495743134937243   0.0216454794132233    0.562678947112691   0.0118342557925401    -1.16562861121091 
33 1    0.667363921833726     0.66523515961137   0.0041168526902311  -0.0795212437232874    0.388822814613416   -0.200565641790005 
34 1    0.661319096000625    0.851904840938801    0.175148748659922   -0.478682900298437   -0.824871372714518   -0.909933499315394 
35 1     0.83039399318227    0.660987805400396    0.164613583801838   -0.180107964718916    0.136898388502576    0.142090514017377 
36 1    0.814276085896608    0.848643980278212  0.00454687550757171   -0.339265387631028   -0.419206262976871   -0.838092219292793 
37 1   0.0146932049357247  -0.0103105133971439    0.347575223209788   -0.503187991635937    0.460549064108086   -0.599491706014056 
38 1   0.0104210867486927    0.177434801635059    0.510896181219664  -0.0865469814111525   -0.712071550311717   -0.421011221170109 
39 1    0.164460443818257   0.0278913464277366    0.498093443303105    0.422637966781151   -0.597091221916109  -0.0398022024671605 
40 1    0.183723334027832    0.181052705704587    0.331370123522447   -0.242224197285026   -0.385572846703021    0.231710022831773 
41 1   0.0145276800499232    0.332956832231048    0.348377764685097   -0.458731918549252   -0.172729017267547   -0.786967201745109 
42 1   0.0213196439808598    0.512477922359722    0.477164985506192   -0.681724938531283   -0.196790229416283     1.13219337473445 
43 1    0.167824043406426    0.335061863212786    0.496307786406305    0.584908172331562    0.073399143156379    0.908594324023045 
44 1    0.181817494303345    0.499104166244251    0.345957543592476    0.130000371923049   0.0158526645635373   -0.711477023142308 
45 1   0.0155579578838569    0.664756438690233    0.319605665237759   -0.385432053836326     0.54409979781964    0.576394361260132 
46 1   0.0269233476539057    0.829017337706205    0.498320041431157    -0.10434037085548   -0.188329259241611   -0.155413719694507 
47 1    0.189785823160719    0.657599816829361     0.49693224939881  -0.0141897975261954    0.924100852253149    0.444360515677212 
48 1    0.177856555069297    0.848442587832892    0.287133992444637   -0.298060173657367   -0.404095817339868    0.924225445069839 
49 1    0.353200752007751   0.0244849534747118    0.311869983688325   -0.292924506962952   -0.370554710424479    0.494878672032058 
50 1    0.329425020820167    0.170139123719764    0.509019170973716    0.226564017219398    0.216784192990374   -0.135088134660215 
51 1    0.511759181410639 -0.00946804852071637    0.516115652994245  -0.0198859541367215   -0.147560472403984   -0.372831700570473 
52 1    0.519295779912341    0.158384318275921    0.376126203145304   -0.250650540057207    0.356609409254805   -0.419144986961984 
53 1     0.34168197964334    0.341473267475294    0.339452785419439    0.252267918382076   -0.399949209141837   -0.375297431822685 
54 1    0.347885303860835    0.490638446773687    0.495641257739976   -0.265677401360685    0.774026991899794    0.614806554979097 
55 1    0.501049799521979    0.344484543405315    0.500089127288902    0.448757041450507   -0.538644047067493    0.310432355105268 
56 1    0.508832691332941    0.512796367216311    0.332298432338575    -0.24941154294245   0.0903438363735476   -0.472671371582283 
57 1    0.317465807365011    0.671015632980129    0.322418166894408    0.946495475802388    0.443708697492997    0.185304776931367 
58 1    0.330525823991707    0.860109386276463    0.488340852075225   -0.234007549763957   -0.418192641281751    -0.32438295345399 
59 1    0.504503993205617     0.67459835236366    0.506394190693527    0.161522091744603   -0.269982178619905   -0.616469591107449 
60 1    0.525518743779116    0.826143630134879     0.33793860378762    -1.23333238143247    0.402888870136795     0.25776663825664 
61 1    0.670940871722678 -0.00421687250349123    0.334328254562934   0.0754674420075398   0.0781292106233833     1.08218900816984 
62 1    0.685478054032387    0.156078359886692    0.519870514120953    0.209374250944768    0.539798280938402   -0.531100139378774 
63 1    0.838284416037027 -0.00779036422056834    0.512578986817402    0.314364653397511    0.634041948130766   -0.854126437342722 
64 1    0.835659354640143    0.163902139016386    0.332135164151623    0.204908503126673   -0.563734848890409    0.254920200199546 
65 1    0.667577838096463    0.331053722842171      0.3411464158022    0.248561970820984  -0.0875412350915089   0.0113626744630112 
66 1    0.667167460848418    0.499481500504203    0.483122638319628  -0.0329473059530194    0.147198493123948    0.186689749687397 
67 1    0.846852662968331    0.314867523263501    0.497266488331888   -0.624739052661938    0.438729353685805  -0.0638051015942338 
68 1    0.851493142642653    0.487158775711919    0.332945566415106   -0.460223832083657 -0.00282969487946415 -0.00142158515321986 
69 1    0.671305859534868    0.675690680369144    0.316717765417366    0.300247669815887   -0.608224217934172    0.356657773341614 
70 1    0.675161183391651    0.835580665720613    0.508075661615408    0.109859086079906   -0.269456704612174  -0.0127133739555806 
71 1    0.835944186080042     0.64734108382163    0.482618888612365    0.167856185255012    0.686749145295974  0.00638437983930867 
72 1    0.851072483171492    0.823436299126683    0.330068136017871   -0.100325921725593    0.114899257359388    0.291515777700553 
73 1   0.0168362771906914 -0.000518084706470745    0.666560448367932   -0.973440681145956   -0.391738124286543   -0.441210710730466 
74 1  -0.0222647247550753    0.163684307385097    0.843678139415374    0.961654129607769    0.798061502914864    0.208350917489693 
75 1    0.142810859941505   -0.010913099657671     0.83299604881006    0.399682344216351   -0.688861122983921   0.0967348561893145 
76 1    0.150850533369635    0.161584657323374    0.693446593076601     0.30986132708114    0.749000814076961   -0.428460725098451 
77 1  0.00270126538782733    0.331014373642006    0.664174574185836    0.370152589616939     1.08296733237268    0.377955412305926 
78 1  -0.0332097675247951     0.50320530568024    0.837614655711036   0.0995653156188848  0.00422344896783493   -0.357464222053127 
79 1    0.148904834182758    0.358178672705549    0.839368846116599     0.18943577633655   -0.272272810347956  -0.0130608427429053 
80 1    0.166002942791692     0.52129887383694    0.666256489950229    0.302706812057735   -0.623059841795394     0.28288365913067 
81 1 -0.00573221078951747    0.660250480654213    0.652986594774006   -0.351631395241399  -0.0303113860244003    0.121259963607068 
82 1  -0.0165604634132706    0.822800514411256    0.828676815845029    -0.19020978356549    0.384011993206633    0.378860749220323 
83 1    0.137722044779139    0.661973919812795    0.844787905508156    0.444572264172662   -0.530564008293954   -0.556057167404336 
84 1    0.157710886363475    0.816887291176272    0.680183046309708    0.409349074653587   0.0371251837136302   -0.404006369465292 
85 1    0.313093972542902 -0.00325625577835353    0.665736657263551     0.30291145907149  -0.0897377562081664    0.293126924965946 
86 1    0.314180808889205    0.165561878759831    0.834124284007999     1.15851832057549   0.0531637114996066   -0.221510455582175 
87 1    0.485111140998924  0.00964464412095367    0.836864938310441   -0.082308445982121  -0.0220938012912417   -0.294867448011154 
88 1     0.49899740916635    0.158264365726495    0.651672411394088   -0.369012055258563    0.292101008064887    0.476618360585884 
89 1    0.333741366287654    0.333225419305222    0.675356571157636  -0.0722501268673062    0.021976309893593  -0.0838474278526561 
90 1    0.342100564315047    0.493646657183717     0.84280073130526   -0.300687346501477   0.0216713684487437   -0.855746447206147 
91 1    0.506718564108041    0.340567809360891    0.842644526481649   -0.477723565081539   -0.181024734307419   -0.401286858739272 
92 1    0.514941118331421    0.499962854521073    0.664895770030171    0.113085009441809   -0.389816445439991   0.0434104526298495 
93 1     0.36380340611413    0.657629353095217    0.671566250177875    -1.39603597610369   -0.440115223487826   -0.382342219936695 
94 1    0.313980469498233    0.797755112337313    0.837050670696499   -0.207637861071527    0.449486427790396   -0.699341459252427 
95 1    0.516883010398601    0.664896300139617    0.820979048595973    0.275627726335192   0.0723702194637453    0.636166558106951 
96 1    0.488503468919134    0.828815215259851    0.664407516694382    0.457451710418981    0.732233210862166    0.454940151786315 
97 1    0.677636117026964   0.0192111128951638    0.678502993631696   -0.439042696617053   -0.744377604137819   -0.190391446994975 
98 1    0.638864846636352    0.169881405040428    0.836798374738237    0.414904727997172   -0.105705688989169    0.427394679956739 
99 1    0.818027616603217   0.0317631263378644     0.83376113061081  -0.0870981984572584   -0.999410913183162    0.558960648269546 
100 1    0.860016794353783     0.17663497515332    0.677904409702478    -1.14927323798007   -0.343964222693246   -0.867524118677214 
101 1    0.653600820597944    0.315304079390103    0.678864069319729    0.388297705361817    0.524760906498167   -0.603595046395649 
102 1    0.674100672990335    0.497477099256116    0.835764388189887   -0.144432435833865     0.37816856919172   -0.215960131592618 
103 1    0.814038401538255    0.338636890083308    0.834611259687108    0.489370121959186   -0.542469689709968    0.170426775283566 
104 1    0.819388548330835    0.483723964149362    0.636448345082954    0.532791363714563   -0.126218297106268    0.720276173382046 
105 1    0.684943194702441    0.660821274086402    0.658073356553246   -0.831151254606104    0.200439262508061   -0.743792615364355 
106 1    0.676426258005677    0.848555179992218    0.826065544899507   -0.574262110119917  -0.0496202221514502   0.0558923136073382 
107 1     0.81382799735411    0.672370674229342    0.814127961153645    0.849978801963939   0.0529852591890702    0.941017828076666 
108 1    0.843232507040511    0.845941544154584    0.656400861396378  -0.0282331548691524    -0.71211358155894    0.604014589302159 
ITEM: TIMESTEP
200
ITEM: NUMBER OF ATOMS
108
ITEM: BOX BOUNDS pp pp pp
-7.9900458022943432e-02 1.2229900458022961e+01
-7.9900458022943432e-02 1.2229900458022950e+01
-7.9900458022943432e-02 1.2229900458022950e+01
ITEM: ATOMS id type xsu ysu zsu fx fy fz 
1 1  -0.0118640776805137 -0.00557596141550221  0.00310173029936323    0.172164319538816    0.191904889507918    0.099651132620387 
2 1  -0.0125033947289239    0.171460384090778    0.176515117729423    0.453946353768081   -0.305970065549277   -0.516951931234217 
3 1      0.1744315859886  0.00184074177059301     0.17163325630554   -0.427506077161703    0.156553090948118   -0.365621988558065 
4 1    0.166237586201191    0.145733021927413 -0.00420995499467836   -0.653975129028378    0.726447385099188    0.474904337058475 