LAMMPS (17 Nov 2016)
units metal
dimension 3
boundary p p p
atom_style atomic
read_data structure.inp
  orthogonal box = (0 0 0) to (12.15 12.15 12.15)
  1 by 1 by 1 MPI processor grid
  reading atoms ...
  108 atoms
include potential.inp
pair_style eam/alloy
pair_coeff * * Al.lammps.eam Al
fix 1 all npt temp 600 600 1.0 iso 0.0 0.0 1.0
variable  dumptime equal 100
dump 1 all custom ${dumptime} dump.out id type xsu ysu zsu fx fy fz
dump 1 all custom 100 dump.out id type xsu ysu zsu fx fy fz
dump_modify 1 sort id format line "%d %d %20.15g %20.15g %20.15g %20.15g %20.15g %20.15g"
thermo_style custom step temp pe etotal pxx pyy pzz vol
thermo_modify format  float %20.15g
thermo 100
velocity all create 1200 441 dist gaussian
run 10000
Neighbor list info ...
  1 neighbor list requests
  update every 1 steps, delay 10 steps, check yes
  max neighbors/atom: 2000, page size: 100000
  master list distance cutoff = 8.5
  ghost atom cutoff = 8.5
  binsize = 4.25 -> bins = 3 3 3
Memory usage per processor = 3.93753 Mbytes
Step Temp PotEng TotEng Pxx Pyy Pzz Volume 
       0                 1200    -362.880858320022    -346.283855702022    -9513.76388489295    -8554.29748965918     -7884.6874070319          1793.613375 
     100     463.331949079796    -352.976683835813    -346.568415859246     -3522.1329437881    -3522.37596845944     -232.45999530403         1849.5961717 
     200     617.629534595974    -355.032775952661    -346.490443450458    -16351.9532013528    -13903.2654182292    -16668.8138681011     1865.31888724576 
     300     528.077647243848    -353.610159125557     -346.30640404738      22901.170016134     22644.9577140972     21828.8830677333     1782.15678503749 
     400     477.927738931361    -353.127552509552    -346.517412564336     -1768.3258288174    -4675.63975078167    -2037.88418351844     1846.70864826755 
     500     557.788785778695    -354.118793979767    -346.404109031551    -11922.3666787689    -15236.3073957214    -12719.9746730368     1865.20106496756 
     600     599.589564650333     -354.60493093795    -346.312106292761     14453.7993459034      14138.792097634     15871.3578733679     1794.61896843679 
     700     540.939137262758    -353.910839942369    -346.429199711262    -5521.58102723633     28.3620465419076     314.059103052603     1840.40748769643 
     800     507.235056661673    -353.255059451448    -346.239574815319    -7065.78100578951    -10067.5279284048    -9026.49580723449     1863.83800260912 
     900     643.356619654991     -355.07010462598    -346.171945042046     8467.53989695531     8781.17265546289     7489.36314091571     1806.85344287651 
    1000      573.08001003852     -354.07821132259    -346.152035966813     1122.85324250444    -2349.75623120075    -214.630428141648     1834.39969595099 
    1100     542.677889480654    -353.423598455838    -345.917909828804    -4970.33471153318      -8671.883582729     -9235.7712219171     1860.40234798971 
    1200     573.029762038917    -353.696379437317    -345.770899053357     7335.88587626975     8474.02261300863     7627.31081598836     1819.45594788176 
    1300     577.468772383275    -353.609478669531    -345.622603063649     1374.18633807042      2265.0059251847      1784.6574768574     1836.01014101484 
    1400     559.804045019215    -353.173411650677    -345.430853983384    -8935.04582881893    -7297.12398181938    -5577.27260075319     1861.83289872146 
    1500     628.142123658236    -353.987919992406    -345.300189600046     4182.21117719102     2657.39718750196      8506.4300115467     1824.08630134305 
    1600     652.690870748871    -354.152039076951    -345.124779001481     2055.72245385664     1113.71652860375      3755.6988371144     1829.83236159889 
    1700     589.988778046224      -353.1012830755    -344.941245330647    -4873.67897260961    -10092.1868052734    -8591.91741261154      1863.4198349388 
    1800     655.581717649026    -353.915779274165     -344.84853637072     371.439340975992    -1997.71685925696     1104.29271267823     1837.86253734024 
    1900     554.386158502145    -352.369423608591    -344.701799838555     8812.60277180201      10769.257643798     14827.4196288996     1822.08420856619 
    2000     625.583664049236    -353.267967974041    -344.615623215705    -9588.71038671236    -7929.85926131208    -8788.50036353539     1867.67459268546 
    2100     576.590454615154    -352.563310217373    -344.588582480072     429.878586368746     3994.38729101411     6324.07891454139      1841.9074253889 
    2200     609.606664756629    -352.930813875915    -344.499444366818     2269.90069145412     3819.40136211437       1147.443605877     1837.44427059598 
    2300     594.846985280255    -352.654444739041    -344.427213929037     -627.92391821764     762.484767965357    -4323.37047106665     1853.33338220555 
    2400     663.609014645887    -353.575035519356    -344.396768391517    -2719.50965455157    -181.744287956734    -7979.51802460705     1850.40297071386 
    2500     580.628893611325     -352.40829765971    -344.377714936915     6869.49124885084     2978.73871604989      3168.6690327348     1833.83541706928 
    2600     591.680594450574    -352.557761634894     -344.37432465563     1671.55926648203     2560.43006852775     2840.29824018502     1840.25798514759 
    2700     615.694887495989    -352.885792883056    -344.370218166673    -3884.05231820581      600.05098434116     -3977.9257823527     1854.56349092646 
    2800     638.623551204105    -353.227812756579     -344.39511546387     3767.30369914222     1572.25965188379    -1247.93824309992     1841.32163229476 
    2900     622.415416980422    -353.015541423372    -344.407016169115     5807.70382998915     1203.67612869565     3006.96091829112     1836.33019506351 
    3000     607.029253778379     -352.81399552607    -344.418273764268    -4158.24707668036    -5047.15093951072    -4739.97165411444     1857.98269307359 
    3100     620.269592249868    -353.035795387509    -344.456948682144      1915.3579961656     1310.88530663011     4498.06046136436     1840.31445590736 
    3200     633.199669003576    -353.239063381506    -344.481382911365     6824.65080638989    -823.334306663007     261.060992498069     1837.10102284752 
    3300     619.216481273234    -353.082335170788    -344.518053870121     510.742775316407    -2152.25966379316    -4868.07173712195     1850.80036684956 
    3400     572.365420393171    -352.483381133138    -344.567089149206     2455.33449906108     1734.53398476055     908.650117783451     1841.68850610129 
    3500     641.535100343806    -353.480382916531    -344.607416466577    -423.402884749528      69.081202005496    -425.465835262929     1839.27095853874 
    3600     512.364695358372    -351.750942875898    -344.664511050703      2650.1838745891     5646.00375830343     7981.90196903003     1843.28316980592 
    3700     664.371711221191    -353.913767397526    -344.724951538807    -9666.09757587923    -5426.08387748592    -6427.92171178229     1854.48223932066 
    3800     680.468535486762    -354.181593902287    -344.770145514837     2343.10314876046    -1832.46673679475    -767.927306917111     1835.13977368951 
    3900     563.040178633284    -352.651987532626    -344.864671433613      5029.8903767776     2300.10879688341     4648.89383523869     1842.71144849519 
    4000     582.006825030583    -352.950023227475     -344.90038256187    -5901.49485061158    -6418.70316692431    -4825.39237126051     1860.05424310514 
    4100     650.571601418886    -353.970500919249    -344.972552109295     8989.56768194658     5936.45017946392     2566.37231358192     1823.41234215806 
    4200      602.37210621141     -353.42097881361    -345.089669293775     2405.71683713188        -176.80784087     1187.60899869169     1837.54853157569 
    4300     544.263416022644    -352.606860227665    -345.079242443824    -4602.87232473815    -10829.9336175067     -6906.4692678326     1868.31638149365 
    4400     616.996184858308    -353.745043991533    -345.211471245375     4072.78190499078    -1483.76643549572     5729.03036353418     1831.35671492838 
    4500     681.132940784192    -354.669749850644    -345.249112182809     4123.77365222757     3684.98441477204     4103.93326733737     1820.03817739234 
    4600     573.021202787389    -353.226401637219    -345.301039634859    -9071.94837068073    -9212.81213181598    -8659.62314749487     1865.96132335614 
    4700     569.227227429645    -353.319093945378    -345.446205792139     1435.01344847973     712.101463043144     691.145082294114     1840.32997953928 
    4800     625.189913785408    -354.069905875125    -345.423007011922     11931.4865485015     12674.7129426511     7277.42156717455     1809.05134084856 
    4900     633.045440096294    -354.284500020853     -345.52895266536     -10771.768773661    -12893.4990060609    -12066.5547748528     1863.90582111476 
    5000     604.025167299506    -354.035139549801    -345.680966813962    -8165.30307624177    -1971.92587914928    -1878.39286950885     1844.77124434749 
    5100     577.237125231598    -353.625361461207    -345.641689728978     16731.7888707161     10327.6485774741     16996.4641406952     1802.21724096084 
    5200     585.398221813245    -353.872334932693    -345.775788416021    -16022.4908638521    -9676.94088131844    -13352.0882818108     1868.41579684677 
    5300     617.999054177548      -354.5071224551    -345.959679188345    -3673.53941602653     -5348.9829766313    -5618.05690760871     1843.33174247083 
    5400     544.968140241009    -353.432132167451    -345.894767458862     18470.0191891612     15236.6488322926     17643.4101777755     1798.28924599739 
    5500     515.042768374182    -353.147524172123     -346.02405235955    -10167.7768825366    -7341.73362657931    -8719.14379609577      1865.8372747298 
    5600     545.625165571035    -353.729922961815    -346.183471043958    -1867.10198970803    -2650.08423268087    -8206.50891679191     1848.87242928228 
    5700     639.324976094872    -355.004574686406    -346.162176101407     11407.0006730109     9457.89348057508     7007.18226957723     1805.49833406476 
    5800     485.100514729713    -353.010246713495    -346.300901286027    -3183.03458981015    -6182.43918593299    -5725.33917221594     1853.15222418313 
    5900     560.242336433351    -354.207587758377    -346.458968154628     566.610418434843    -3081.08638008942    -6532.36874307917     1839.94424302453 
    6000     542.429288981106    -353.987332449988    -346.485082175572     9872.67473009795     8569.29221139273     14061.1191489673     1807.56021894761 
    6100     544.856558390431    -354.173988801294    -346.638167362927    -5837.51695220981    -4967.66739338702    -3226.89836532983       1844.206386583 
    6200     570.610848198491    -354.661154953531    -346.769130169023    -5949.87279496296    -4514.76531168865    -2637.01883307918     1839.64638429561 
    6300     598.690649529109    -355.161437910427    -346.881046012422     7685.11354183192     7468.21972950402     4773.21635046996     1810.83905437153 
    6400     524.622269245208    -354.309778123004    -347.053813809567    -2651.36581175626    -4652.30091052881    -3677.79578036875     1838.88349918113 
    6500     561.273746851368    -354.957738371782    -347.194853500193    -4857.37765423048    -2496.11563195552    -4370.75308350383     1836.69250805997 
    6600     498.967166886268    -354.226368732753    -347.325235920164     7949.20409071403     4363.93306014286     9289.34728101676     1812.69684956715 
    6700      488.79149832715    -354.246258200697    -347.485863386204     1894.28083970625     27.6712999424629    -674.447645175598     1829.97952571366 
    6800     513.109397593043    -354.705428739258    -347.608697059947    -4593.56310987248    -2894.54960667553    -3508.53059002268     1837.01818150832 
    6900     519.441180304421    -354.931463465558     -347.74715794105     3037.62742491197     2759.90957102838      3550.4075770747     1816.57077150757 
    7000     557.124416639538    -355.566064791858    -347.860568623926    -1110.43691288448    -4128.18332755736    -155.411975206803     1826.44067927805 
    7100     544.668584216415    -355.464282463214    -347.931060864729    -8581.49465866009    -5247.32908084825    -3285.36345255395     1835.43973363889 
    7200     499.712430340406    -354.919468133582    -348.008027704743     2073.89375682599     7234.30449414701     5732.93102555036     1813.12504151179 
    7300      524.59119505659    -355.328630833922    -348.073096302477     620.606066240967     3483.91835379404    -378.321883591043     1817.69369298722 
    7400     505.835824537838    -355.089334398527     -348.09320231175    -2612.93233764744    -5735.24816526319    -6020.46517625285     1834.77769280018 
    7500     557.540069415986    -355.832512976315      -348.1212679832     1035.16258695447     1469.68231631498     1230.52995840755     1816.07215184257 
    7600     467.559656493902    -354.585065541309    -348.118324838892     2386.44338328139     2721.02914572929     5122.21363603115     1818.40079989064 
    7700     473.412982316658    -354.629007298946    -348.081310209859    -4970.36236742254    -2136.00467183442    -2192.38317625515     1837.37102265565 
    7800     456.514259015646    -354.352527399301    -348.038553772604    -2888.40870674932     4130.17674784169     3687.79874905548     1826.17127685394 
    7900     524.318416836356    -355.190734847898    -347.938973067149     360.339504421063     4209.44817921152     4390.53879027789     1815.69311651864 
    8000     504.211859800565    -354.797864863322    -347.824193565708    -4665.81290372708    -299.029512149319    -1326.40354438046     1831.64050261344 
    8100     502.543534650561    -354.628151850274    -347.677554883395     2210.40772629755    -1069.30968097973     1168.95808271591     1827.51597223821 
    8200     538.023677570636    -354.912352126329    -347.471035138674    -1267.78609677585     3921.35819232541     4795.99340782817     1819.99025934034 
    8300     506.569116488695    -354.266087280241    -347.259813153107    -2884.03298611356    -4283.17993283552     -1542.1607280304       1837.907602187 
    8400     582.842457059675    -355.103138164025    -347.041940009274    -4217.99121694971    -4148.85726557951     26.0410948915373     1830.65440626809 
    8500     579.668368503287    -354.823755604574    -346.806457746557     6451.16856877733     4281.21270515401     6011.16496078861     1817.43752923632 
    8600     541.064968170813    -354.059646212729     -346.57626563503     -5682.6630329447    -8177.79145403245    -3724.47614498402       1848.814840433 
    8700     577.507055718456    -354.420228872293    -346.432823775899     1663.74852712976    -3937.00303858752     4156.55468652021     1828.51948007902 
    8800      593.45510311853    -354.460550621509    -346.252570704739     4202.56441662196     4708.82768433277     8194.46761505137     1816.12648950431 
    8900     543.123621342276    -353.645208067148    -346.133354596052    -5363.70580143002    -7000.97864655941    -7516.00491287093     1853.74810722758 
    9000     580.641753647125    -354.080835237218    -346.050074649383     2023.27993688367     2858.28579279726    -2651.44820030512     1834.33330732808 
    9100     547.366134558575     -353.50519374814    -345.934662774579     12455.3649885822     10200.5376240501     3145.41426744431     1818.74382694788 
    9200     564.332474488679    -353.639917433988    -345.834727803562    -2949.75052091188    -5701.52925254424    -10736.6730633783     1852.45186057271 
    9300     584.313537930609    -353.870459196144    -345.788914763838       731.8022580286     174.996372825767     2234.42355428018     1836.23290271394 
    9400     597.038556804489    -353.953265442588    -345.695723367312     5732.83955965564     3001.78851176699     4476.97348196498     1824.11063451786 
    9500      656.52713480441    -354.686532262217    -345.606213449602    -7135.50657535324    -8712.86614254236     -9185.3660807697     1851.19828655055 
    9600     580.054095726162    -353.576332062313    -345.553699274523     4511.08037835412     2935.85617734502     653.863161492597     1830.68503773994 
    9700      610.82378204852    -353.927288323427    -345.479085065263     2157.11845737572     2451.64423952556     1867.40915675261     1828.89425342938 
    9800     605.993720624362    -353.789194094195    -345.407794621117    -5316.94841505845    -4001.33119334899    -3092.41843359587     1848.97767834293 
    9900     581.468957008265    -353.397272341373    -345.355070839913    -2503.96861835736    -681.421057970512    -1853.52945225271      1843.4326002211 
   10000     622.122709517028    -353.874994390745    -345.270517525269     3132.74461303714    -804.447897159338     5395.92548543894     1827.72690640001 
Loop time of 2.66278 on 1 procs for 10000 steps with 108 atoms

Performance: 324.474 ns/day, 0.074 hours/ns, 3755.481 timesteps/s
100.0% CPU use with 1 MPI tasks x no OpenMP threads

MPI task timing breakdown:
Section |  min time  |  avg time  |  max time  |%varavg| %total
---------------------------------------------------------------
Pair    | 2.4806     | 2.4806     | 2.4806     |   0.0 | 93.16
Neigh   | 0          | 0          | 0          |   0.0 |  0.00
Comm    | 0.068771   | 0.068771   | 0.068771   |   0.0 |  2.58
Output  | 0.033504   | 0.033504   | 0.033504   |   0.0 |  1.26
Modify  | 0.061709   | 0.061709   | 0.061709   |   0.0 |  2.32
Other   |            | 0.01824    |            |       |  0.68

Nlocal:    108 ave 108 max 108 min
Histogram: 1 0 0 0 0 0 0 0 0 0
Nghost:    1580 ave 1580 max 1580 min
Histogram: 1 0 0 0 0 0 0 0 0 0
Neighs:    7560 ave 7560 max 7560 min
Histogram: 1 0 0 0 0 0 0 0 0 0

Total # of neighbors = 7560
Ave neighs/atom = 70
Neighbor list builds = 0
Dangerous builds = 0
Total wall time: 0:00:02
