no title                                                                
SP        RB3LYP                                                      6-31+G(d)           
Number of atoms                            I                3
Info1-9                                    I   N=           9
          12          11           0           0           0         110
           1          18        -502
Full Title                                 C   N=           1
no title    
Route                                      C   N=           2
#n B3LYP/6-31+G(d) sp   
Charge                                     I                0
Multiplicity                               I                1
Number of electrons                        I               10
Number of alpha electrons                  I                5
Number of beta electrons                   I                5
Number of basis functions                  I               23
Number of independent functions            I               23
Number of point charges in /Mol/           I                0
Number of translation vectors              I                0
Atomic numbers                             I   N=           3
           1           1           8
Nuclear charges                            R   N=           3
  1.00000000E+00  1.00000000E+00  8.00000000E+00
Current cartesian coordinates              R   N=           9
  0.00000000E+00  1.33623816E+00 -1.06899053E+00 -1.63641978E-16 -1.33623816E+00
 -1.06899053E+00 -1.54074396E-32  5.01009062E-33  2.67247631E-01
Number of symbols in /Mol/                 I                0
Force Field                                I                0
Atom Types                                 C   N=           3
                                    
Int Atom Types                             I   N=           3
           0           0           0
MM charges                                 R   N=           3
  0.00000000E+00  0.00000000E+00  0.00000000E+00
Integer atomic weights                     I   N=           3
           1           1          16
Real atomic weights                        R   N=           3
  1.00782504E+00  1.00782504E+00  1.59949146E+01
Atom fragment info                         I   N=           3
           0           0           0
Atom residue num                           I   N=           3
           0           0           0
Nuclear spins                              I   N=           3
           1           1           0
Nuclear ZEff                               R   N=           3
 -1.00000000E+00 -1.00000000E+00 -5.60000000E+00
Nuclear ZNuc                               R   N=           3
  1.00000000E+00  1.00000000E+00  8.00000000E+00
Nuclear QMom                               R   N=           3
  0.00000000E+00  0.00000000E+00  0.00000000E+00
Nuclear GFac                               R   N=           3
  2.79284600E+00  2.79284600E+00  0.00000000E+00
MicOpt                                     I   N=           3
          -1          -1          -1
Number of residues                         I                0
Number of secondary structures             I                0
SymInf integers                            I   N=          26
           2           4           1           1           1          -1
          -1           1          -1           1           1           1
          -1           1           0           0           0           0
           0           0           0           0           0           0
           0           0
RotTr to input orientation                 R   N=          12
 -1.73191211E-16  2.59786817E-16 -1.00000000E+00  7.07106781E-01 -7.07106781E-01
 -3.06161700E-16 -7.07106781E-01 -7.07106781E-01 -6.12323400E-17  1.88972612E-01
  1.88972612E-01  0.00000000E+00
Number of contracted shells                I                9
Number of primitive shells                 I               20
Pure/Cartesian d shells                    I                1
Pure/Cartesian f shells                    I                0
Highest angular momentum                   I                2
Largest degree of contraction              I                6
Shell types                                I   N=           9
           0           0           0           0           0          -1
          -1          -1           2
Number of primitives per shell             I   N=           9
           3           1           3           1           6           3
           1           1           1
Shell to atom map                          I   N=           9
           1           1           2           2           3           3
           3           3           3
Primitive exponents                        R   N=          20
  1.87311370E+01  2.82539436E+00  6.40121692E-01  1.61277759E-01  1.87311370E+01
  2.82539436E+00  6.40121692E-01  1.61277759E-01  5.48467166E+03  8.25234946E+02
  1.88046958E+02  5.29645000E+01  1.68975704E+01  5.79963534E+00  1.55396162E+01
  3.59993359E+00  1.01376175E+00  2.70005823E-01  8.45000000E-02  8.00000000E-01
Contraction coefficients                   R   N=          20
  3.34946043E-02  2.34726953E-01  8.13757326E-01  1.00000000E+00  3.34946043E-02
  2.34726953E-01  8.13757326E-01  1.00000000E+00  1.83107443E-03  1.39501722E-02
  6.84450781E-02  2.32714336E-01  4.70192898E-01  3.58520853E-01 -1.10777550E-01
 -1.48026263E-01  1.13076702E+00  1.00000000E+00  1.00000000E+00  1.00000000E+00
P(S=P) Contraction coefficients            R   N=          20
  0.00000000E+00  0.00000000E+00  0.00000000E+00  0.00000000E+00  0.00000000E+00
  0.00000000E+00  0.00000000E+00  0.00000000E+00  0.00000000E+00  0.00000000E+00
  0.00000000E+00  0.00000000E+00  0.00000000E+00  0.00000000E+00  7.08742682E-02
  3.39752839E-01  7.27158577E-01  1.00000000E+00  1.00000000E+00  0.00000000E+00
Coordinates of each shell                  R   N=          27
 -6.58816276E-33  1.33623816E+00 -1.06899053E+00 -6.58816276E-33  1.33623816E+00
 -1.06899053E+00 -1.63641978E-16 -1.33623816E+00 -1.06899053E+00 -1.63641978E-16
 -1.33623816E+00 -1.06899053E+00 -1.23528052E-32 -1.47641523E-35  2.67247631E-01
 -1.23528052E-32 -1.47641523E-35  2.67247631E-01 -1.23528052E-32 -1.47641523E-35
  2.67247631E-01 -1.23528052E-32 -1.47641523E-35  2.67247631E-01 -1.23528052E-32
 -1.47641523E-35  2.67247631E-01
Num ILSW                                   I              100
ILSW                                       I   N=         100
           0           1           0           0           2           0
           0           0           0           0         402          -1
           5           0           0           0           0           0
           0           0           1           0           0           0
           1           0           0           0           0           0
           0           0      100000           0          -1           0
           0           0           0           0           0           0
           0           0           0           1           0           0
           0 -2000000000           1           0           0           0
           0           0           4          52           0           0
           0           0           5           0           0           0
           0           0           0           0           0           1
           0           0           0           0           0           0
           0           0           0           0           0           0
           0           0           0           0           0           0
           0           0           0           0           0           0
           0           0           0           0
Num RLSW                                   I               52
RLSW                                       R   N=          52
  8.00000000E-01  7.20000000E-01  1.00000000E+00  8.10000000E-01  2.00000000E-01
  0.00000000E+00  0.00000000E+00  1.00000000E+00  0.00000000E+00  0.00000000E+00
  0.00000000E+00  0.00000000E+00  1.00000000E+00  0.00000000E+00  0.00000000E+00
  0.00000000E+00  0.00000000E+00  1.00000000E+00  0.00000000E+00  0.00000000E+00
  0.00000000E+00  0.00000000E+00  1.00000000E+00  0.00000000E+00  0.00000000E+00
  0.00000000E+00  0.00000000E+00  1.00000000E+00  0.00000000E+00  0.00000000E+00
  0.00000000E+00  0.00000000E+00  1.00000000E+00  0.00000000E+00  0.00000000E+00
  0.00000000E+00  0.00000000E+00  0.00000000E+00  1.00000000E+00  1.00000000E+00
  0.00000000E+00  1.00000000E+00  0.00000000E+00  0.00000000E+00  0.00000000E+00
  0.00000000E+00  0.00000000E+00  0.00000000E+00  0.00000000E+00  0.00000000E+00
  0.00000000E+00  0.00000000E+00
MxBond                                     I                2
NBond                                      I   N=           3
           1           1           2
IBond                                      I   N=           6
           3           0           3           0           1           2
RBond                                      R   N=           6
  1.00000000E+00  0.00000000E+00  1.00000000E+00  0.00000000E+00  1.00000000E+00
  1.00000000E+00
Virial Ratio                               R      2.010021152142318E+00
SCF Energy                                 R     -7.641532617736654E+01
Total Energy                               R     -7.641532617736654E+01
RMS Density                                R      1.168671542638211E-09
Job Status                                 I                1
Nuclear derivative order                   I                0
External E-field                           R   N=          35
  0.00000000E+00  0.00000000E+00  0.00000000E+00  0.00000000E+00  0.00000000E+00
  0.00000000E+00  0.00000000E+00  0.00000000E+00  0.00000000E+00  0.00000000E+00
  0.00000000E+00  0.00000000E+00  0.00000000E+00  0.00000000E+00  0.00000000E+00
  0.00000000E+00  0.00000000E+00  0.00000000E+00  0.00000000E+00  0.00000000E+00
  0.00000000E+00  0.00000000E+00  0.00000000E+00  0.00000000E+00  0.00000000E+00
  0.00000000E+00  0.00000000E+00  0.00000000E+00  0.00000000E+00  0.00000000E+00
  0.00000000E+00  0.00000000E+00  0.00000000E+00  0.00000000E+00  0.00000000E+00
IOpCl                                      I                0
IROHF                                      I                0
Alpha Orbital Energies                     R   N=          23
 -1.91792753E+01 -1.02104314E+00 -5.02751798E-01 -4.22357770E-01 -3.20160153E-01
  1.48417941E-02  1.10942439E-01  1.55249897E-01  1.56362828E-01  1.81316087E-01
  2.47845560E-01  8.79724442E-01  1.01811294E+00  1.11221659E+00  1.11650175E+00
  1.17679046E+00  1.29696212E+00  1.68700895E+00  1.74087455E+00  1.74706695E+00
  2.26738336E+00  2.50805484E+00  3.66542792E+00
Alpha MO coefficients                      R   N=         529
  4.04614573E-04 -8.21717044E-04  4.04614573E-04 -8.21717044E-04  9.92779619E-01
  2.58760640E-02  0.00000000E+00  0.00000000E+00 -1.24129379E-03  1.15694525E-02
  0.00000000E+00  0.00000000E+00  6.79969429E-04 -1.13769708E-03  0.00000000E+00
  0.00000000E+00 -7.51611449E-04 -8.00415956E-03 -8.08297772E-03 -8.07474530E-03
  0.00000000E+00  0.00000000E+00  0.00000000E+00  1.38109019E-01 -2.90095318E-02
  1.38109019E-01 -2.90095318E-02 -2.08474518E-01  4.71272840E-01  0.00000000E+00
  0.00000000E+00 -1.34708356E-01  4.43041741E-01  0.00000000E+00  0.00000000E+00
 -7.77274370E-02  5.30220944E-02  0.00000000E+00  0.00000000E+00 -1.98503802E-02
 -1.11413790E-02  1.36018609E-02  2.36712030E-02  0.00000000E+00  0.00000000E+00
  0.00000000E+00  2.28277125E-01  1.41069333E-01 -2.28277125E-01 -1.41069333E-01
  0.00000000E+00  0.00000000E+00  0.00000000E+00  5.29851842E-01  0.00000000E+00
  0.00000000E+00  0.00000000E+00  2.86567886E-01  0.00000000E+00  0.00000000E+00
  0.00000000E+00  1.89061034E-02  0.00000000E+00  0.00000000E+00  0.00000000E+00
  0.00000000E+00  0.00000000E+00  0.00000000E+00 -4.40921455E-02 -1.59061848E-01
 -1.22826385E-01 -1.59061848E-01 -1.22826385E-01 -9.09623153E-02  2.06576425E-01
  0.00000000E+00  0.00000000E+00  5.36415686E-01  3.52794961E-01  0.00000000E+00
  0.00000000E+00  3.07805968E-01  6.48842932E-02  0.00000000E+00  0.00000000E+00
  5.15598800E-02  8.17870089E-03  9.61038351E-03 -4.45598196E-02  0.00000000E+00
  0.00000000E+00  0.00000000E+00  0.00000000E+00  0.00000000E+00  0.00000000E+00
  0.00000000E+00  0.00000000E+00  0.00000000E+00  6.46030186E-01  0.00000000E+00
  0.00000000E+00  0.00000000E+00  4.32953115E-01  0.00000000E+00  0.00000000E+00
  0.00000000E+00  1.23105042E-01  0.00000000E+00  0.00000000E+00  0.00000000E+00
  0.00000000E+00  0.00000000E+00  0.00000000E+00 -3.60741643E-02  0.00000000E+00
  9.19592415E-02  1.05369099E-01  9.19592415E-02  1.05369099E-01  9.02564080E-02
 -1.05900794E-01  0.00000000E+00  0.00000000E+00  2.67250718E-01 -1.02253745E+00
  0.00000000E+00  0.00000000E+00  2.99143605E-01  1.19818370E+00  0.00000000E+00
  0.00000000E+00 -4.59277186E-01  5.53157346E-02  4.57666618E-02  2.84792922E-02
  0.00000000E+00  0.00000000E+00  0.00000000E+00  1.12500736E-01  7.05572067E-01
 -1.12500736E-01 -7.05572067E-01  0.00000000E+00  0.00000000E+00  0.00000000E+00
 -3.95762630E-01  0.00000000E+00  0.00000000E+00  0.00000000E+00 -6.59791865E-01
  0.00000000E+00  0.00000000E+00  0.00000000E+00  6.04767564E-01  0.00000000E+00
  0.00000000E+00  0.00000000E+00  0.00000000E+00  0.00000000E+00  0.00000000E+00
  2.01818591E-02  0.00000000E+00  0.00000000E+00  0.00000000E+00  0.00000000E+00
  0.00000000E+00  0.00000000E+00 -2.71023848E-01  0.00000000E+00  0.00000000E+00
  0.00000000E+00 -4.60042986E-01  0.00000000E+00  0.00000000E+00  0.00000000E+00
  1.19954167E+00  0.00000000E+00  0.00000000E+00  0.00000000E+00  0.00000000E+00
  0.00000000E+00  0.00000000E+00  8.56071605E-03  0.00000000E+00  1.53074333E-02
  3.00305254E-01  1.53074333E-02  3.00305254E-01  5.91460793E-02 -5.77134702E-02
  0.00000000E+00  0.00000000E+00 -1.85094230E-01 -6.82809995E-01  0.00000000E+00
  0.00000000E+00 -3.31188959E-01  3.65465851E-01  0.00000000E+00  0.00000000E+00
  1.25162600E+00  3.38746731E-02  4.21506069E-02  5.15902465E-02  0.00000000E+00
  0.00000000E+00  0.00000000E+00 -1.67564905E-01 -1.52614043E+00  1.67564905E-01
  1.52614043E+00  0.00000000E+00  0.00000000E+00  0.00000000E+00  1.48927263E-01
  0.00000000E+00  0.00000000E+00  0.00000000E+00  2.66458249E-01  0.00000000E+00
  0.00000000E+00  0.00000000E+00  1.53158986E+00  0.00000000E+00  0.00000000E+00
  0.00000000E+00  0.00000000E+00  0.00000000E+00  0.00000000E+00  2.60081249E-02
 -1.55792249E-01 -2.46084816E+00 -1.55792249E-01 -2.46084816E+00 -4.11610673E-02
  6.54724344E-02  0.00000000E+00  0.00000000E+00 -2.62355145E-01  6.61101988E-01
  0.00000000E+00  0.00000000E+00 -6.38704558E-01  3.41181831E+00  0.00000000E+00
  0.00000000E+00 -1.51108036E+00  5.13177616E-03 -2.33725637E-02 -8.19622796E-04
  0.00000000E+00  0.00000000E+00  0.00000000E+00 -7.87049516E-01  1.77919382E+00
  7.87049516E-01 -1.77919382E+00  0.00000000E+00  0.00000000E+00  0.00000000E+00
  5.08937146E-01  0.00000000E+00  0.00000000E+00  0.00000000E+00 -3.48138232E-01
  0.00000000E+00  0.00000000E+00  0.00000000E+00 -7.76885251E-01  0.00000000E+00
  0.00000000E+00  0.00000000E+00  0.00000000E+00  0.00000000E+00  0.00000000E+00
  2.00176931E-01 -5.58371994E-01  2.07852821E+00 -5.58371994E-01  2.07852821E+00
  7.10977492E-03  8.31749954E-01  0.00000000E+00  0.00000000E+00 -7.23510676E-01
 -2.04022640E+00  0.00000000E+00  0.00000000E+00  1.04488246E+00 -1.75814019E+00
  0.00000000E+00  0.00000000E+00  7.35598728E-01  2.77114332E-01  1.71374081E-01
  1.63784593E-01  0.00000000E+00  0.00000000E+00  0.00000000E+00  0.00000000E+00
  0.00000000E+00  0.00000000E+00  0.00000000E+00  0.00000000E+00  0.00000000E+00
 -9.71300755E-01  0.00000000E+00  0.00000000E+00  0.00000000E+00  1.45810446E+00
  0.00000000E+00  0.00000000E+00  0.00000000E+00 -7.03273656E-01  0.00000000E+00
  0.00000000E+00  0.00000000E+00  0.00000000E+00  0.00000000E+00  0.00000000E+00
 -4.12884354E-02  0.00000000E+00 -3.53640390E-01  2.09496581E-01  3.53640390E-01
 -2.09496581E-01  0.00000000E+00  0.00000000E+00  0.00000000E+00 -8.51513076E-01
  0.00000000E+00  0.00000000E+00  0.00000000E+00  1.57624736E+00  0.00000000E+00
  0.00000000E+00  0.00000000E+00 -7.82913862E-01  0.00000000E+00  0.00000000E+00
  0.00000000E+00  0.00000000E+00  0.00000000E+00  0.00000000E+00  1.53652155E-01
  3.77807802E-01 -5.21361751E-01  3.77807802E-01 -5.21361751E-01 -1.07936708E-02
 -9.63768560E-01  0.00000000E+00  0.00000000E+00 -6.66972100E-01  1.95076788E+00
  0.00000000E+00  0.00000000E+00  1.22728125E+00 -1.66301614E-01  0.00000000E+00
  0.00000000E+00 -8.18898250E-01 -3.62832181E-01 -1.62747905E-01 -2.63472227E-01
  0.00000000E+00  0.00000000E+00  0.00000000E+00 -7.20180136E-01  5.43199973E-01
 -7.20180136E-01  5.43199973E-01 -8.78261292E-02 -1.21527942E+00  0.00000000E+00
  0.00000000E+00  8.95515431E-02  2.92021175E+00  0.00000000E+00  0.00000000E+00
 -6.74012525E-01 -1.43340192E+00  0.00000000E+00  0.00000000E+00  4.44646454E-01
 -2.82072280E-02 -6.05563733E-01 -4.94786696E-01  0.00000000E+00  0.00000000E+00
  0.00000000E+00  2.71332430E-02 -2.52790066E-02  2.71332430E-02 -2.52790066E-02
  1.85101044E-03  5.18332110E-03  0.00000000E+00  0.00000000E+00 -1.84607570E-02
 -2.28831192E-02  0.00000000E+00  0.00000000E+00  1.06976081E-01  3.03118709E-02
  0.00000000E+00  0.00000000E+00 -5.64322805E-02 -6.67810266E-02 -8.23204549E-01
  8.99766144E-01  0.00000000E+00  0.00000000E+00  0.00000000E+00  0.00000000E+00
  0.00000000E+00  0.00000000E+00  0.00000000E+00  0.00000000E+00  0.00000000E+00
  0.00000000E+00  0.00000000E+00  0.00000000E+00  0.00000000E+00  0.00000000E+00
  0.00000000E+00  0.00000000E+00  0.00000000E+00  0.00000000E+00  0.00000000E+00
  0.00000000E+00  0.00000000E+00  0.00000000E+00  0.00000000E+00  1.00000000E+00
  0.00000000E+00  0.00000000E+00  0.00000000E+00  0.00000000E+00  0.00000000E+00
  0.00000000E+00  0.00000000E+00  0.00000000E+00 -1.45006749E-02  0.00000000E+00
  0.00000000E+00  0.00000000E+00  7.98826597E-02  0.00000000E+00  0.00000000E+00
  0.00000000E+00 -3.49188985E-02  0.00000000E+00  0.00000000E+00  0.00000000E+00
  0.00000000E+00  0.00000000E+00  0.00000000E+00  9.98459130E-01  0.00000000E+00
 -8.79129613E-01  8.42079338E-02 -8.79129613E-01  8.42079338E-02 -5.67515656E-02
 -5.50582427E-01  0.00000000E+00  0.00000000E+00  1.14180145E-01  1.55306571E+00
  0.00000000E+00  0.00000000E+00 -8.78693904E-01 -2.76446157E-01  0.00000000E+00
  0.00000000E+00  1.70117209E-01 -1.17489242E+00  4.30579281E-01  3.60126815E-01
  0.00000000E+00  0.00000000E+00  0.00000000E+00  9.17160232E-01 -4.34900168E-01
 -9.17160232E-01  4.34900168E-01  0.00000000E+00  0.00000000E+00  0.00000000E+00
  9.27689329E-02  0.00000000E+00  0.00000000E+00  0.00000000E+00 -7.57334923E-01
  0.00000000E+00  0.00000000E+00  0.00000000E+00  3.48221112E-01  0.00000000E+00
  0.00000000E+00  0.00000000E+00  0.00000000E+00  0.00000000E+00  0.00000000E+00
  1.22207690E+00  1.13230085E-01 -5.70567324E-01  1.13230085E-01 -5.70567324E-01
 -4.91265422E-01  1.43412462E-01  0.00000000E+00  0.00000000E+00  3.40005579E-02
  4.18819698E+00  0.00000000E+00  0.00000000E+00 -1.21095070E-01 -2.35901719E-01
  0.00000000E+00  0.00000000E+00 -3.07683239E-01 -1.66867009E+00 -1.62114918E+00
 -1.62237505E+00  0.00000000E+00  0.00000000E+00  0.00000000E+00
Orthonormal basis                          R   N=         529
  1.01655638E-01  1.50069091E-01  1.01655638E-01  1.50069091E-01  2.51250561E-02
  1.28931507E-01  0.00000000E+00  0.00000000E+00 -2.40209407E-02  1.75848500E-01
  0.00000000E+00  0.00000000E+00 -5.32180427E-02  1.53862965E-01  0.00000000E+00
  0.00000000E+00 -4.76572223E-02  1.14753830E-01  1.25335325E-01  1.25335325E-01
  0.00000000E+00  0.00000000E+00  0.00000000E+00 -1.28255211E-01 -8.77213805E-02
 -1.28255211E-01 -8.77213805E-02  4.10647137E-02  1.48342085E-01  0.00000000E+00
  0.00000000E+00  2.34904628E-01  1.35550059E-01  0.00000000E+00  0.00000000E+00
  3.77993965E-01  7.21592395E-02  0.00000000E+00  0.00000000E+00  3.21717639E-01
  1.27770153E-01  9.46916562E-02  9.46916562E-02  0.00000000E+00  0.00000000E+00
  0.00000000E+00 -3.88364883E-02 -1.37463384E-01 -3.88364883E-02 -1.37463384E-01
  8.14583671E-01  3.22654815E-01  0.00000000E+00  0.00000000E+00 -2.71780900E-01
  4.23550346E-02  0.00000000E+00  0.00000000E+00 -1.18843095E-01 -2.11432561E-01
  0.00000000E+00  0.00000000E+00  4.66286144E-03  4.22378339E-02 -2.11716786E-02
 -2.11716786E-02  0.00000000E+00  0.00000000E+00  0.00000000E+00 -3.93449211E-02
  2.22914694E-01 -3.93449211E-02  2.22914694E-01  4.45745459E-01 -1.86527980E-01
  0.00000000E+00  0.00000000E+00  6.97298856E-01 -6.24482375E-02  0.00000000E+00
  0.00000000E+00  8.83634618E-02  1.89797756E-01  0.00000000E+00  0.00000000E+00
 -3.48932062E-01 -1.67331659E-01 -1.60578379E-01 -1.60578379E-01  0.00000000E+00
  0.00000000E+00  0.00000000E+00 -2.84425166E-01 -3.89790224E-02 -2.84425166E-01
 -3.89790224E-02 -2.30669174E-01  2.96063587E-01  0.00000000E+00  0.00000000E+00
  1.63014244E-01  4.09636639E-02  0.00000000E+00  0.00000000E+00 -1.44352981E-01
 -2.18844619E-01  0.00000000E+00  0.00000000E+00 -4.59715960E-01  7.66938139E-01
 -1.99728335E-01 -1.99728335E-01  0.00000000E+00  0.00000000E+00  0.00000000E+00
 -1.66065056E-01  2.09526746E-01 -1.66065056E-01  2.09526746E-01  1.66121082E-01
 -3.78194038E-01  0.00000000E+00  0.00000000E+00 -4.61984466E-01  7.60307532E-03
  0.00000000E+00  0.00000000E+00  1.08007325E-01  5.42492697E-01  0.00000000E+00
  0.00000000E+00  3.16022653E-01  3.49253189E-01 -3.97773010E-01 -3.97773010E-01
  0.00000000E+00  0.00000000E+00  0.00000000E+00  2.00359827E-17 -1.19116231E-16
  2.00359827E-17 -1.19116231E-16 -1.77867414E-16  3.54621045E-16  0.00000000E+00
  0.00000000E+00  2.09208515E-16  1.20163554E-16  0.00000000E+00  0.00000000E+00
 -2.11638910E-16 -6.92549352E-17  0.00000000E+00  0.00000000E+00 -2.82188519E-17
 -1.87155840E-16  8.66025404E-01 -8.66025404E-01  0.00000000E+00  0.00000000E+00
  0.00000000E+00  6.76492748E-01 -2.03174325E-01  6.76492748E-01 -2.03174325E-01
  1.40941324E-01 -3.83705002E-01  0.00000000E+00  0.00000000E+00  5.19767574E-01
  2.45396091E-03  0.00000000E+00  0.00000000E+00 -4.21170071E-01 -2.72980294E-01
  0.00000000E+00  0.00000000E+00  6.07145447E-01  6.70209245E-01 -1.87339229E-01
 -1.87339229E-01  0.00000000E+00  0.00000000E+00  0.00000000E+00  6.27902167E-02
  1.24485280E-01  6.27902167E-02  1.24485280E-01 -3.44484483E-01  1.30090321E+00
  0.00000000E+00  0.00000000E+00  3.05719409E-01 -1.82308202E-01  0.00000000E+00
  0.00000000E+00 -5.60510971E-01  3.88005816E-01  0.00000000E+00  0.00000000E+00
  6.02444002E-01 -5.77069441E-01 -6.55824517E-01 -6.55824517E-01  0.00000000E+00
  0.00000000E+00  0.00000000E+00  9.66218348E-01 -1.62954494E-02  9.66218348E-01
 -1.62954494E-02 -1.26584933E-01  5.31489438E-01  0.00000000E+00  0.00000000E+00
 -4.70792320E-01 -4.44723491E-02  0.00000000E+00  0.00000000E+00  1.76273905E+00
 -2.83172584E-01  0.00000000E+00  0.00000000E+00 -7.45281752E-01  3.96160829E-02
 -6.50538138E-01 -6.50538138E-01  0.00000000E+00  0.00000000E+00  0.00000000E+00
  5.47018084E-01 -2.12163072E+00  5.47018084E-01 -2.12163072E+00  2.52247191E-01
  5.76089636E-01  0.00000000E+00  0.00000000E+00  7.71652712E-02 -2.94806828E+00
  0.00000000E+00  0.00000000E+00 -1.98631242E-01  3.81671820E+00  0.00000000E+00
  0.00000000E+00 -1.28768838E+00  8.88482266E-01  8.14111439E-01  8.14111439E-01
  0.00000000E+00  0.00000000E+00  0.00000000E+00  6.50691804E-02 -2.58666704E+00
  6.50691804E-02 -2.58666704E+00 -3.73615008E-01 -9.18378985E-01  0.00000000E+00
  0.00000000E+00  1.55569942E-01  5.47136966E+00  0.00000000E+00  0.00000000E+00
 -8.48527310E-01  1.78848850E+00  0.00000000E+00  0.00000000E+00 -1.45472173E+00
 -1.42842798E+00 -1.16974765E+00 -1.16974765E+00  0.00000000E+00  0.00000000E+00
  0.00000000E+00  0.00000000E+00  0.00000000E+00  0.00000000E+00  0.00000000E+00
  0.00000000E+00  0.00000000E+00  0.00000000E+00  0.00000000E+00  0.00000000E+00
  0.00000000E+00  0.00000000E+00  0.00000000E+00  0.00000000E+00  0.00000000E+00
  0.00000000E+00  0.00000000E+00  0.00000000E+00  0.00000000E+00  0.00000000E+00
  0.00000000E+00  1.00000000E+00  0.00000000E+00  0.00000000E+00  0.00000000E+00
  0.00000000E+00  0.00000000E+00  0.00000000E+00  0.00000000E+00  0.00000000E+00
  3.38496871E-01  0.00000000E+00  0.00000000E+00  0.00000000E+00  4.84301624E-01
  0.00000000E+00  0.00000000E+00  0.00000000E+00  4.13451438E-01  0.00000000E+00
  0.00000000E+00  0.00000000E+00  0.00000000E+00  0.00000000E+00  0.00000000E+00
  0.00000000E+00  0.00000000E+00  0.00000000E+00  0.00000000E+00  0.00000000E+00
  0.00000000E+00  0.00000000E+00  0.00000000E+00  0.00000000E+00  0.00000000E+00
  0.00000000E+00  0.00000000E+00  0.00000000E+00  0.00000000E+00  0.00000000E+00
  0.00000000E+00  0.00000000E+00  0.00000000E+00  0.00000000E+00  0.00000000E+00
  0.00000000E+00  0.00000000E+00  0.00000000E+00  1.00000000E+00  0.00000000E+00
  0.00000000E+00  0.00000000E+00  0.00000000E+00  0.00000000E+00  0.00000000E+00
  0.00000000E+00  8.79966812E-01  0.00000000E+00  0.00000000E+00  0.00000000E+00
 -6.66489147E-02  0.00000000E+00  0.00000000E+00  0.00000000E+00 -6.42367665E-01
  0.00000000E+00  0.00000000E+00  0.00000000E+00  0.00000000E+00  0.00000000E+00
  0.00000000E+00  0.00000000E+00  0.00000000E+00  0.00000000E+00  0.00000000E+00
  0.00000000E+00  0.00000000E+00  0.00000000E+00  0.00000000E+00 -7.38595040E-01
  0.00000000E+00  0.00000000E+00  0.00000000E+00  1.51411613E+00  0.00000000E+00
  0.00000000E+00  0.00000000E+00 -1.16888405E+00  0.00000000E+00  0.00000000E+00
  0.00000000E+00  0.00000000E+00  0.00000000E+00  0.00000000E+00  0.00000000E+00
  0.00000000E+00  1.98605127E-01  1.53695249E-01 -1.98605127E-01 -1.53695249E-01
  0.00000000E+00  0.00000000E+00  0.00000000E+00  1.99840311E-01  0.00000000E+00
  0.00000000E+00  0.00000000E+00  3.44060731E-01  0.00000000E+00  0.00000000E+00
  0.00000000E+00  2.93377969E-01  0.00000000E+00  0.00000000E+00  0.00000000E+00
  0.00000000E+00  0.00000000E+00  0.00000000E+00 -9.07262942E-02 -2.56548841E-01
  2.01893997E-02  2.56548841E-01 -2.01893997E-02  0.00000000E+00  0.00000000E+00
  0.00000000E+00  1.83166466E-01  0.00000000E+00  0.00000000E+00  0.00000000E+00
  1.88791954E-01  0.00000000E+00  0.00000000E+00  0.00000000E+00  2.14398391E-01
  0.00000000E+00  0.00000000E+00  0.00000000E+00  0.00000000E+00  0.00000000E+00
  0.00000000E+00  7.57904921E-01  2.66823001E-02 -1.75254580E-01 -2.66823001E-02
  1.75254580E-01  0.00000000E+00  0.00000000E+00  0.00000000E+00  8.83224360E-01
  0.00000000E+00  0.00000000E+00  0.00000000E+00  4.27247573E-02  0.00000000E+00
  0.00000000E+00  0.00000000E+00 -5.19604197E-01  0.00000000E+00  0.00000000E+00
  0.00000000E+00  0.00000000E+00  0.00000000E+00  0.00000000E+00 -4.97076544E-02
  7.11721520E-01 -2.34091139E-02 -7.11721520E-01  2.34091139E-02  0.00000000E+00
  0.00000000E+00  0.00000000E+00 -5.08605395E-01  0.00000000E+00  0.00000000E+00
  0.00000000E+00  3.84788233E-01  0.00000000E+00  0.00000000E+00  0.00000000E+00
 -8.14856957E-01  0.00000000E+00  0.00000000E+00  0.00000000E+00  0.00000000E+00
  0.00000000E+00  0.00000000E+00  7.40655496E-01 -7.22871070E-01 -4.13232164E-01
  7.22871070E-01  4.13232164E-01  0.00000000E+00  0.00000000E+00  0.00000000E+00
 -5.80919343E-01  0.00000000E+00  0.00000000E+00  0.00000000E+00  1.86096657E+00
  0.00000000E+00  0.00000000E+00  0.00000000E+00 -5.69707188E-01  0.00000000E+00
  0.00000000E+00  0.00000000E+00  0.00000000E+00  0.00000000E+00  0.00000000E+00
 -6.29371716E-01 -7.37206118E-01  2.45343472E+00  7.37206118E-01 -2.45343472E+00
  0.00000000E+00  0.00000000E+00  0.00000000E+00  5.02978226E-02  0.00000000E+00
  0.00000000E+00  0.00000000E+00 -2.55824773E-02  0.00000000E+00  0.00000000E+00
  0.00000000E+00 -1.63065862E+00  0.00000000E+00  0.00000000E+00  0.00000000E+00
  0.00000000E+00  0.00000000E+00  0.00000000E+00 -1.74293661E-01
Total SCF Density                          R   N=         276
  1.92970764E-01  9.54661665E-02  7.16582118E-02 -1.54710193E-02 -3.33454411E-02
  1.92970764E-01 -3.33454411E-02 -7.94401552E-03  9.54661665E-02  7.16582118E-02
 -2.78437681E-02  3.28090732E-02 -2.78437681E-02  3.28090732E-02  2.07469428E+00
  6.44781433E-02 -7.81314056E-02  6.44781433E-02 -7.81314056E-02 -1.82699638E-01
  5.30882960E-01  0.00000000E+00  0.00000000E+00  0.00000000E+00  0.00000000E+00
  0.00000000E+00  0.00000000E+00  8.34710002E-01  2.41906111E-01  1.49491692E-01
 -2.41906111E-01 -1.49491692E-01  4.45284487E-19 -9.59747172E-19  6.16297582E-33
  5.61485950E-01 -2.07856423E-01 -1.23954307E-01 -2.07856423E-01 -1.23954307E-01
 -4.38853685E-02  9.45886496E-02 -2.63926689E-32 -1.19045789E-17  6.11779340E-01
  1.01530461E-02 -1.12388940E-01  1.01530461E-02 -1.12388940E-01 -2.25936086E-01
  5.63944067E-01 -1.11776999E-32 -2.62894656E-18  2.59097930E-01  6.41768242E-01
  0.00000000E+00  0.00000000E+00  0.00000000E+00  0.00000000E+00  0.00000000E+00
  0.00000000E+00  5.59401562E-01  3.08148791E-33 -1.89616807E-32  0.00000000E+00
  3.74896799E-01  1.30833786E-01  8.08518812E-02 -1.30833786E-01 -8.08518812E-02
  2.25648697E-19 -5.47349249E-19  3.08148791E-33  3.03677044E-01 -6.64436118E-18
 -1.50501062E-18  3.08148791E-33  1.64242306E-01 -1.19389542E-01 -7.11048333E-02
 -1.19389542E-01 -7.11048333E-02 -2.22389877E-02  5.39444427E-02 -1.51494757E-32
 -6.64436118E-18  3.51163282E-01  1.48327525E-01 -8.69602935E-33 -3.71175893E-18
  2.01573062E-01 -5.99649292E-03 -1.90134289E-02 -5.99649292E-03 -1.90134289E-02
 -3.61705271E-02  7.67239983E-02 -2.38688256E-33 -5.61384431E-19  5.53276912E-02
  9.27373803E-02 -1.36754083E-33 -3.21639675E-19  3.16994552E-02  1.40452167E-02
  0.00000000E+00  0.00000000E+00  0.00000000E+00  0.00000000E+00  0.00000000E+00
  0.00000000E+00  1.59059146E-01  7.70371978E-34 -5.39152719E-33  0.00000000E+00
  1.06597423E-01  7.70371978E-34 -3.61326536E-33  0.00000000E+00  3.03097026E-02