ITEM: TIMESTEP
0
ITEM: NUMBER OF ATOMS
108
ITEM: BOX BOUNDS pp pp pp
0.0000000000000000e+00 1.2150000000000000e+01
0.0000000000000000e+00 1.2149999999999990e+01
0.0000000000000000e+00 1.2149999999999990e+01
ITEM: ATOMS id type xsu ysu zsu fx fy fz 
1 1                    0                    0                    0 1.90819582357449e-16 1.98834004816462e-14 1.97836538817775e-14 
2 1                    0    0.166666666666629    0.166666666666629 5.23886489744996e-16 9.26342336171615e-16  8.6389229103645e-16 
3 1    0.166666666666629                    0    0.166666666666629  1.0547118733939e-15 2.00013616780126e-14 6.69603261727048e-16 
4 1    0.166666666666629    0.166666666666629                    0 1.04777297948999e-15 1.79630615937398e-15 2.02893257750247e-14 
5 1                    0    0.333333333333371                    0 2.51534904016637e-16 -4.6898249173033e-15 1.89639970393785e-14 
6 1                    0                  0.5    0.166666666666629 1.38777878078145e-17 4.36196218034368e-15 1.06512021424976e-15 
7 1    0.166666666666629    0.333333333333371    0.166666666666629 8.67361737988404e-18 -5.04631059161653e-15 6.99960922556642e-16 
8 1    0.166666666666629                  0.5                    0 1.64451785522601e-15 5.44009282066327e-15 2.05959381494036e-14 
9 1                    0    0.666666666666629                    0 -1.73472347597681e-16 -1.97758476261356e-16 2.01609562378025e-14 
10 1                    0    0.833333333333371    0.166666666666629 -4.5102810375397e-15 -1.9970136655445e-14 1.17614251671228e-15 
11 1    0.166666666666629    0.666666666666629    0.166666666666629 2.17187379192296e-15 -7.45063732932039e-16 1.30104260698261e-16 
12 1    0.166666666666629    0.833333333333371                    0  2.8345381597461e-15  -1.929532922329e-14 1.94592605917698e-14 
13 1    0.333333333333371                    0                    0 -8.15320033709099e-16 1.97081934105725e-14 1.96279624498086e-14 
14 1    0.333333333333371    0.166666666666629    0.166666666666629 -1.53696499971545e-15 8.80155323623732e-16 8.09031661108683e-16 
15 1                  0.5                    0    0.166666666666629 1.37216626949765e-15 2.03513421392909e-14 5.79397640976254e-16 
16 1                  0.5    0.166666666666629                    0 1.47017814589034e-15 1.76941794549634e-15 2.07017562814382e-14 
17 1    0.333333333333371    0.333333333333371                    0 -3.33066907387547e-16 -4.99730465342019e-15  1.9630347694588e-14 
18 1    0.333333333333371                  0.5    0.166666666666629 -5.23886489744996e-16 4.73845632362328e-15 1.16876994193937e-16 
19 1                  0.5    0.333333333333371    0.166666666666629 1.20795714702816e-15 -5.00988139862102e-15 8.03827490680753e-16 
20 1                  0.5                  0.5                    0 2.22738494315422e-15 4.45650460978442e-15 2.10964058722229e-14 
21 1    0.333333333333371    0.666666666666629                    0 -1.41553435639707e-15 4.72928987638177e-16 2.03153466271644e-14 
22 1    0.333333333333371    0.833333333333371    0.166666666666629 -1.72084568816899e-15 -1.9560958755549e-14 4.29127219869763e-16 
23 1                  0.5    0.666666666666629    0.166666666666629 -9.80425210131616e-16 -1.43461631463282e-15 8.44810332800705e-16 
24 1                  0.5    0.833333333333371                    0 -1.13624387676481e-15 -1.93838001205648e-14 2.10276674544874e-14 
25 1    0.666666666666629                    0                    0 1.49880108324396e-15 2.08132122647697e-14  2.0719537197067e-14 
26 1    0.666666666666629    0.166666666666629    0.166666666666629 -3.64291929955129e-16 9.40220123979429e-16 8.49147141490647e-16 
27 1    0.833333333333371                    0    0.166666666666629 7.59808882477842e-16 1.93768612266609e-14 7.35522753814166e-16 
28 1    0.833333333333371    0.166666666666629                    0 7.84095011141517e-16 1.85962356624714e-15 1.96561517062932e-14 
29 1    0.666666666666629    0.333333333333371                    0 5.51642065360625e-16 -4.38581462813836e-15 2.00742200640036e-14 
30 1    0.666666666666629                  0.5    0.166666666666629 7.97972798949331e-17 3.96210841913103e-15 9.99200722162641e-16 
31 1    0.833333333333371    0.333333333333371    0.166666666666629  4.8919202022546e-16 -4.69416172599324e-15 7.91033905045424e-16 
32 1    0.833333333333371                  0.5                    0 1.00613961606655e-16 4.73666245115467e-15 1.99978922310606e-14 
33 1    0.666666666666629    0.666666666666629                    0 1.75900960464048e-15 -4.60569082871842e-16 2.12815876032835e-14 
34 1    0.666666666666629    0.833333333333371    0.166666666666629 1.12323345069498e-15 -1.85112342121485e-14 7.81492925927552e-16 
35 1    0.833333333333371    0.666666666666629    0.166666666666629 1.36696209906972e-15 -2.42861286636753e-16 2.08860706507608e-15 
36 1    0.833333333333371    0.833333333333371                    0 5.56846235788555e-16 -1.91825721973515e-14  2.0344836926256e-14 
37 1                    0                    0    0.333333333333371 2.46330733588707e-16 1.97871233287295e-14 -5.31172328344098e-15 
38 1                    0    0.166666666666629                  0.5 -3.81639164714898e-17  1.7728873924483e-15 4.93702301262999e-15 
39 1    0.166666666666629                    0                  0.5 1.56819002228303e-15 2.01522826204226e-14  5.5198901005582e-15 
40 1    0.166666666666629    0.166666666666629    0.333333333333371 -3.46944695195361e-17 6.66133814775094e-16 -4.92661467177413e-15 
41 1                    0    0.333333333333371    0.333333333333371 3.22658566531686e-16 -4.65079363909382e-15 -4.72798883377479e-15 
42 1                    0                  0.5                  0.5 -3.61516372393567e-15 5.82259934711615e-15 4.71150896075301e-15 
43 1    0.166666666666629    0.333333333333371                  0.5 -1.45022882591661e-15 -4.69763117294519e-15 5.00554458993108e-15 
44 1    0.166666666666629                  0.5    0.333333333333371 -1.37737043992558e-15 4.75636447391631e-15 -4.91794105439425e-15 
45 1                    0    0.666666666666629    0.333333333333371 -4.12517242587285e-15 -9.12464548363801e-16 -4.74620343027254e-15 
46 1                    0    0.833333333333371                  0.5 -4.00027233560252e-15 -2.13110779023751e-14 5.65693325516037e-15 
47 1    0.166666666666629    0.666666666666629                  0.5 2.70616862252382e-16 -4.44089209850063e-16 4.52589354882349e-15 
48 1    0.166666666666629    0.833333333333371    0.333333333333371 -1.08376849161651e-15 -1.96648253236731e-14 -5.49213452494257e-15 
49 1    0.333333333333371                    0    0.333333333333371 -3.43475248243408e-16 2.03702072570922e-14 -5.80330054844591e-15 
50 1    0.333333333333371    0.166666666666629                  0.5 -5.48172618408671e-16 9.84238732182341e-16 5.41428880895811e-15 
51 1                  0.5                    0                  0.5 2.29677388219329e-15   2.053066917862e-14 4.61262972262233e-15 
52 1                  0.5    0.166666666666629    0.333333333333371 1.23456219936222e-15 9.08995101411847e-16 -4.73579508941668e-15 
53 1    0.333333333333371    0.333333333333371    0.333333333333371 -7.80625564189563e-16 -5.23886489744996e-15 -5.54417622922188e-15 
54 1    0.333333333333371                  0.5                  0.5 7.21644966006352e-16 5.61114946670388e-15 4.43915737502465e-15 
55 1                  0.5    0.333333333333371                  0.5 1.62977270568021e-15 -4.30905311432639e-15 4.39470508595274e-15 
56 1                  0.5                  0.5    0.333333333333371 1.63324215263216e-15 4.12820819195581e-15 -4.46170878021235e-15 
57 1    0.333333333333371    0.666666666666629    0.333333333333371 -4.19803081186387e-16 -5.88288098790635e-16 -4.92704835264313e-15 
58 1    0.333333333333371    0.833333333333371                  0.5 -6.17561557447743e-16 -2.02977825519701e-14 5.47261888583783e-15 
59 1                  0.5    0.666666666666629                  0.5 -4.10262102068515e-16 -1.28022592527088e-15 3.83482308408123e-15 
60 1                  0.5    0.833333333333371    0.333333333333371 -1.46887710328336e-15 -1.97543804231204e-14 -5.45050116151913e-15 
61 1    0.666666666666629                    0    0.333333333333371 6.26235174827627e-16 2.08617845220971e-14 -5.2054714705374e-15 
62 1    0.666666666666629    0.166666666666629                  0.5  4.5102810375397e-17 1.79370407416002e-15 4.59181304091061e-15 
63 1    0.833333333333371                    0                  0.5  1.6306400674182e-16 1.95642113620664e-14 4.85462364752109e-15 
64 1    0.833333333333371    0.166666666666629    0.333333333333371 5.22151766269019e-16 8.37871438896798e-16 -4.46170878021235e-15 
65 1    0.666666666666629    0.333333333333371    0.333333333333371 -3.22658566531686e-16 -4.56926163572291e-15 -4.68678915122034e-15 
66 1    0.666666666666629                  0.5                  0.5  7.0082828429463e-16 4.73926453636864e-15 3.60822483003176e-15 
67 1    0.833333333333371    0.333333333333371                  0.5 1.43114686768087e-15 -3.69235891861663e-15 5.83040560275805e-15 
68 1    0.833333333333371                  0.5    0.333333333333371 1.33313499128818e-15 5.57540125178946e-15 -3.70189989773451e-15 
69 1    0.666666666666629    0.666666666666629    0.333333333333371 1.26548077572508e-15 -1.57252683097298e-15 -4.31252256127834e-15 
70 1    0.666666666666629    0.833333333333371                  0.5 1.96023752785379e-15 -1.97819191583015e-14 4.49466852625591e-15 
71 1    0.833333333333371    0.666666666666629                  0.5 2.76167977375508e-15 -1.0772632785816e-15 4.41140179940902e-15 
72 1    0.833333333333371    0.833333333333371    0.333333333333371 1.69092170820839e-15 -2.05929023833207e-14 -5.38371430769402e-15 
73 1                    0                    0    0.666666666666629 -1.59594559789866e-16 1.88174129056584e-14 -9.78384040450919e-16 
74 1                    0    0.166666666666629    0.833333333333371 -4.81212292235966e-15 3.81118747672105e-15 -2.06380051936961e-14 
75 1    0.166666666666629                    0    0.833333333333371 3.10515502199848e-15 1.54286305953377e-14 -2.02754479872169e-14 
76 1    0.166666666666629    0.166666666666629    0.666666666666629 1.80411241501588e-15 2.07819872422021e-15 -4.32813507256213e-16 
77 1                    0    0.333333333333371    0.666666666666629 -4.03843625207401e-15 -7.41767758327683e-15 -2.63677968348475e-16 
78 1                    0                  0.5    0.833333333333371 -3.46597750500166e-15 2.03222855210683e-15 -2.08236206056256e-14 
79 1    0.166666666666629    0.333333333333371    0.833333333333371 -9.61036805691151e-16 -6.62143950780347e-15  -2.034310220278e-14 
80 1    0.166666666666629                  0.5    0.666666666666629 8.32667268468867e-17 3.10342029852251e-15 -1.0096090630185e-15 
81 1                    0    0.666666666666629    0.666666666666629 -4.23966417528732e-15 5.06539254985228e-16 -1.20042864537595e-15 
82 1                    0    0.833333333333371    0.833333333333371 -4.54497550705923e-15 -1.89700685715444e-14 -2.08279574143155e-14 
83 1    0.166666666666629    0.666666666666629    0.833333333333371 1.11889664200504e-15 8.77770078844264e-16 -1.87697080100691e-14 
84 1    0.166666666666629    0.833333333333371    0.666666666666629  1.0547118733939e-15 -1.86448079197987e-14 1.05818132034585e-16 
85 1    0.333333333333371                    0    0.666666666666629 -1.38430933382949e-15 1.89319046550729e-14 -2.38307637512314e-16 
86 1    0.333333333333371    0.166666666666629    0.833333333333371 -1.75900960464048e-15 2.46721046370801e-15 -2.01455605669532e-14 
87 1                  0.5                    0    0.833333333333371 -1.13797860024079e-15 1.70453928749481e-14 -2.03257549680202e-14 
88 1                  0.5    0.166666666666629    0.666666666666629 -9.81075731435107e-16  2.4980018054066e-15 -1.0547118733939e-15 
89 1    0.333333333333371    0.333333333333371    0.666666666666629 -2.53269627492614e-16 -7.17698470098505e-15 1.75857592377149e-16 
90 1    0.333333333333371                  0.5    0.833333333333371 -5.20417042793042e-16 2.35250187385905e-15 -1.98628006403689e-14 
91 1                  0.5    0.333333333333371    0.833333333333371 -1.36089056690381e-15 -6.8660355179162e-15 -2.04363435896138e-14 
92 1                  0.5                  0.5    0.666666666666629 -4.16333634234434e-16 2.08492077768963e-15 -1.93855348440408e-15 
93 1    0.333333333333371    0.666666666666629    0.666666666666629 -2.23779328401008e-15 1.01676479735691e-15 -7.14489231667947e-16 
94 1    0.333333333333371    0.833333333333371    0.833333333333371 -3.6498581934552e-15 -1.81944303373482e-14 -2.01282133321934e-14 
95 1                  0.5    0.666666666666629    0.833333333333371 -3.73399228204008e-15 3.10515502199848e-16 -1.89861147636972e-14 
96 1                  0.5    0.833333333333371    0.666666666666629 -3.59521440396193e-15 -1.86829718362702e-14 -6.80011602582908e-16 
97 1    0.666666666666629                    0    0.666666666666629 1.66533453693773e-15 1.99024824398819e-14 -1.24119464706141e-15 
98 1    0.666666666666629    0.166666666666629    0.833333333333371 1.30017524524462e-15 3.08867514897671e-15 -1.90784887887929e-14 
99 1    0.833333333333371                    0    0.833333333333371  9.9399655173471e-16 1.66932440093248e-14 -2.00811589579075e-14 
100 1    0.833333333333371    0.166666666666629    0.666666666666629 1.37737043992558e-15 4.13558076672871e-15 8.67361737988404e-17 
101 1    0.666666666666629    0.333333333333371    0.666666666666629 1.52221985016965e-15 -6.85658414456855e-15 -9.79251402188908e-16 
102 1    0.666666666666629                  0.5    0.833333333333371 2.25340579529387e-15 1.19175502799607e-15 -1.92801503928752e-14 
103 1    0.833333333333371    0.333333333333371    0.833333333333371 1.64842098304696e-15 -7.12711140105071e-15 -2.1242556325074e-14 
104 1    0.833333333333371                  0.5    0.666666666666629 2.32452945780892e-15 2.97505076130022e-15 -1.75207071073658e-15 
105 1    0.666666666666629    0.666666666666629    0.666666666666629  2.9247437804969e-15 -5.64652491430451e-16 -2.19962936753859e-15 
106 1    0.666666666666629    0.833333333333371    0.833333333333371 3.00193897517786e-15 -1.81599527082632e-14 -1.95485988507826e-14 
107 1    0.833333333333371    0.666666666666629    0.833333333333371 1.59421087442269e-15 7.59808882477842e-16 -2.00672811700997e-14 
108 1    0.833333333333371    0.833333333333371    0.666666666666629 2.06605565988838e-15 -1.98400323947467e-14 -4.54497550705923e-16 
ITEM: TIMESTEP
100
ITEM: NUMBER OF ATOMS
108
ITEM: BOX BOUNDS pp pp pp
-1.1963154289302658e-01 1.2269631542893016e+01
-1.1963154289302658e-01 1.2269631542893006e+01
-1.1963154289302658e-01 1.2269631542893006e+01
ITEM: ATOMS id type xsu ysu zsu fx fy fz 
1 1   0.0137149417076898  -0.0101902520726185  0.00164857255686002   -0.460738651937825    0.593609145792973   0.0217135916695065 
2 1 -0.00158374261945937    0.171573484895248    0.144198967863417   -0.126594929364805    0.255730784181118  -0.0722990949096067 
3 1    0.192444928996906  0.00327235261624992    0.146550818649757   -0.628987456120249   -0.235711758587532    0.900386050810642 
4 1     0.17285526379942    0.164013117891045  0.00438687927010051    0.250832877045241    0.557703534046562   0.0354625832861996 
5 1 -0.00458610967586992    0.313848346853888  -0.0315100766005116    0.105593174293454    0.145758666544641    0.697774049671521 
6 1  -0.0116468726685071    0.511856775281785    0.186645735343632    0.319924974257395    0.184720388460897   -0.658737991254021 
7 1    0.132352455415571    0.350486563347772    0.165168244092115    0.385563982391605   -0.449658749300441    0.271640716093103 
8 1    0.158626964051336    0.495009477241183  0.00575333649885579    0.158729403342921    0.610486733028062    0.166545979443458 
9 1  0.00697667562781135    0.677225600002544  0.00728119710322517   0.0134908135317476   -0.230034657179018   -0.377994648286491 
10 1  0.00578418478949061    0.845708720005064    0.149262663679679    0.140308954035702    -1.19980650456421    0.113568981848295 
11 1    0.150675793942128    0.671953999731159    0.165627857883123    0.731826448724814   -0.341330171194179   0.0246754661749804 
12 1    0.181836108067728    0.830968974127813  0.00511809395698037    0.109073747880227   -0.283434272919125    0.305190383579683 
13 1    0.352268339337343   0.0052612827886378   0.0193498658165936    0.316740965280371  -0.0160741576442978    -1.27711250764808 
14 1     0.32693553512911    0.184777555919254    0.175062332761968  -0.0122880495876182    0.205620682246994   0.0728410011601678 
15 1    0.450377110923114 -0.00671354909286492    0.199549233450171    0.740843400209453   0.0477949767476878    0.288075305376058 
16 1     0.50049652884536    0.189927710518418   0.0181535663746217   -0.480771880360651    -0.62935720174916   -0.876826648511715 
17 1    0.348628677743136    0.349141618124577   0.0168861393049156    -0.30422847052818    0.148633246751449   -0.192645980100854 
18 1    0.312956560669136    0.495724002017027    0.186907774392694  -0.0251784871945292   -0.128479662548661   -0.307754118531741 
19 1    0.511079324364687    0.338304716759694    0.175419674480622   -0.847708849916028    0.810475025701714    0.115161267861075 
20 1    0.535251757814535    0.509194061637913 -0.00487744716099314  -0.0703046141205191   -0.306495669834775  -0.0594368584394436 
21 1    0.358079797734376    0.643923193001683 -0.00979968720452007   -0.400694642720698   0.0525673035474847    0.475618740471897 
22 1    0.352007753129215    0.799343855684015    0.150669369344428   -0.810959769549032    0.543880901017469   0.0854366490027205 
23 1    0.489482579079208    0.650363814411094    0.177703926482309    0.520251236250677   -0.811005044967731  -0.0329694631970316 
24 1    0.502500402635178    0.806077083964851 -0.00816582868651494  -0.0432584397673312    0.934492697866131    0.175020753591682 
25 1    0.645870012633623  0.00415798121537136  -0.0038920806505871    0.268601177912259   -0.274913519901803     0.79022912327502 
26 1    0.632543684109237    0.169754184770568    0.175669148576958    0.571261751019582    -1.15882592841945    0.267089092947195 
27 1    0.817798824704028  -0.0217608106774492    0.162445387852017   -0.522085855675128  -0.0404322508594355   -0.933201142560735 
28 1    0.821888319637992    0.152886319260233  -0.0083640447403468    0.878526955974014    0.379117624788217     1.39470573592834 
29 1    0.670758177850075    0.326121891102161   0.0297923817383889  -0.0637172405834666     0.36516114092205   -0.970853846934786 
30 1    0.696654691455819    0.504746821102913    0.177676954687058   -0.680867873209862  -0.0936437392921943   -0.949599448680288 
31 1    0.846254668964434    0.347622540630823    0.135308024150959    0.474535118367783   -0.218366382931067    0.224538590465817 
32 1    0.841835543796037    0.538067730978696 -0.00573581976567539    -0.47280425300708   -0.484679677988229    0.128885879171812 
33 1     0.67217561360701    0.683246054476626  0.00551123544016718    0.299023030658832   -0.452355218193698   -0.130514420779989 
34 1    0.636130092306303    0.821319397903721     0.17856306100407    0.163415587411807   -0.557203866993478   -0.638753105621807 
35 1     0.84901302639696     0.67863864985668    0.166345577568791   -0.465636927501752     0.13596320105082   0.0877287560190133 
36 1    0.829469734652889    0.834690227278202  -0.0032905110361412     0.17467605804103    0.056980752252839   -0.248903656174187 
37 1 -0.00387322227453524  0.00283482034831195    0.271284296164026    0.531131143915101    0.581751774863009     1.40037545207358 
38 1  -0.0272553625442811    0.176124540396358    0.459439703552334    0.519482960359716   -0.879823658275283    0.152772542325512 
39 1    0.140287233070353 -0.00586293144965566    0.470526144955443   -0.488621492124561  -0.0956377652602955    0.426691398127683 
40 1    0.165509546602266     0.19511321519974    0.354413447827028   -0.839323991731445   0.0566760679458422   -0.727776474395309 
41 1  -0.0428087603149265    0.341194862482439    0.323027119107564    0.594776890739679   -0.304480892775405   -0.187039930780386 
42 1  0.00518521042079101    0.473102172177619    0.540738603003319   -0.533077120725666    0.471106287358819   -0.595619181796239 
43 1    0.165855120686615    0.351428123107667    0.526093305903601    0.118770512698526   -0.565846010101326    0.314560685866299 
44 1    0.138684762889511    0.503728771913643    0.358690125753924    0.333801228074839   -0.390341367493894  -0.0721990184651783 
45 1   0.0176538039136176    0.674357789435589     0.33844288356886   -0.667062573031713    0.160068664089584   -0.222283085185315 
46 1  -0.0112978045869454    0.823536231820981    0.486038923682941    0.291732182732915    0.319785610792653    0.657639132671077 
47 1     0.17793411988805    0.707678851531568    0.488412683740194    -1.02654117698292   -0.630407617206269     0.96874163983826 
48 1    0.199682802285793    0.825263583492529    0.318366873287459   -0.181607827637915    0.779411167875015   -0.366993876902536 
49 1     0.30585900913627   0.0340636792528812    0.349959175124582 -0.00507540860555542   -0.196195522480404   -0.407895597290984 
50 1    0.313999656018723    0.197207490664255    0.503359039919815    0.456871578958639   -0.737480129633991    0.944861782168846 
51 1    0.472171734683229 -0.00947139658836704    0.471013836160068    0.771263786898846    0.242193671651521    0.365492528637996 
52 1    0.481879823189274    0.180644290146347     0.34629844289509    0.161005319098497   0.0324458457057448   -0.126579652445475 
53 1    0.312437388011176    0.356025180522693    0.364794112734785    0.411322760738326    0.527436172227197   -0.577839265756245 
54 1    0.298657027306035    0.528530683846384    0.536605343284918   -0.426372090445582   -0.907078110023249    -1.56418868213928 
55 1    0.494749354201645    0.334983799871111    0.504287299036605     0.14473902244673   -0.515268211928874    0.272104705644248 
56 1    0.511589162391829    0.473626728413819     0.34792133420126   -0.195576492744181    0.626409282876242   -0.267742074828413 
57 1    0.319361164249017    0.642550411664956    0.345194084425998    0.522727423075179  -0.0174525757461994   -0.318806751131971 
58 1    0.345386054004393    0.821591086002854    0.506595851583029   -0.175726627423008    0.387312515179553    0.303393295416565 
59 1    0.489425591187569    0.654466788951027    0.501412484766547    0.327448062329837  -0.0943581861875139     0.10344027669307 
60 1    0.475264879051224    0.809998705821727    0.340662349558215    0.419093972782499   0.0326271291075996    -0.47955928896986 
61 1    0.646174337378625  -0.0247791288514918    0.305585774347946    0.098815253690835     1.15746632784012    0.720310255904386 
62 1    0.682253484298712    0.159297095034503    0.453057131823698   -0.197427496489375    0.121470662643521    0.183315437181531 
63 1     0.84560187407908 -0.00982190436087649    0.453814259678552  -0.0846765971289701    0.528836548984687    0.208245645426964 
64 1    0.818570715951296    0.147816186318892    0.283296958810297    0.474624714243303    0.578292982143537    0.417748885805706 
65 1    0.679289789861059    0.327751667708526    0.315401666055209    0.414269713517619     0.34278875857442    0.388602492008683 
66 1    0.668938422066162    0.472692760421978    0.546397377453786  -0.0336630934640334    0.685280484110459   -0.472991669919693 
67 1    0.835029959264602    0.321112694765134    0.502167863411159   -0.621298844603849    0.557959785817138    0.464883582410689 
68 1    0.834581396999283    0.514724628877389    0.332884077445101   0.0531748942743256 -0.00875469120566229     0.77435312926504 
69 1    0.654054272197072    0.643246985089377    0.333168926627877 -0.00128733622013461    0.570286426233248    0.421860206693789 
70 1     0.67684084885957    0.830594144037718    0.463593544293531   -0.304668202516877   -0.374850309519252      0.2117919164616 
71 1    0.827497079070895    0.665332239693271    0.490492228190419    0.146273211925623  -0.0477471235966658    0.271907228972285 
72 1    0.849549232124104    0.836146019483408    0.319149906013308   -0.201769829799224   -0.819553398718219   -0.238623950581579 
73 1  0.00410115969680191  -0.0466477648135992    0.682442427998467    0.227953720012109    0.582525432233802   -0.397956429414806 
74 1   0.0351883868700043    0.150407482860601    0.832920797503448    -0.73069981072293  -0.0252694875299428    0.100749760201545 
75 1    0.176337493396431 -0.00613377834088169    0.866485117860179    0.673942997218206  0.00739284301806687   -0.885630330328041 
76 1    0.140378280422851    0.139733664690198    0.654583225241936    0.359393283199527   0.0890412475532323   -0.532153331114902 
77 1  -0.0191425016561197    0.331461033722462    0.712561982486818    0.993911642919647   -0.676183414970362   -0.574542298433975 
78 1 -0.00295851440887418    0.504967800665781    0.847914179054101    0.239089147315872    0.226619465667991   0.0598386510352974 
79 1    0.174725749505797    0.344770372235189     0.85727434596447    0.075654759322147   -0.530129450323977   -0.218988697678708 
80 1    0.167282442746114    0.504959490072906    0.706751856986898   -0.435449763101778   -0.349353045903006   -0.407148809668884 
81 1   0.0125612201479726    0.650503366503472    0.666170946372858   -0.114125451881662    0.775290427363402  -0.0546313324400485 
82 1    0.020775452156272     0.81991365432475    0.845604261310427    -0.10974161321488   0.0549455400525831   -0.032064284582051 
83 1    0.195349169576275    0.679221860614575    0.844858393352297   -0.745610217643505   -0.198868549441178    0.120298297645262 
84 1    0.196826992232786     0.84468487520428    0.678991441439166   -0.534019827237735   -0.376265947736557   -0.277075603135441 
85 1    0.336194649819959  0.00891483390375925    0.677563349047091   -0.143470281142478    0.121645825935216  -0.0691048638149039 
86 1     0.35184951721908    0.167377955737152    0.845149727573698   -0.387829340066666    0.146375259009202    0.254529092754177 
87 1    0.507843756861803   0.0250649513394592    0.835996995487676   -0.218123336589096   -0.402791585236579    -0.33762554519132 
88 1    0.496855037345767    0.145386978158399    0.630603656933204    0.316439001563422    0.363470405966832    0.220054991993571 
89 1    0.328331134792506    0.329826047840584    0.707242996837067  -0.0994297963639764   -0.336785313539486    -0.91938862782844 
90 1    0.338184457544685    0.506690865101632    0.829612869109269    0.537677592538634   -0.563150858988866    0.908223200728912 
91 1    0.522777713970981    0.330519410121042    0.817727571235764   -0.306566656929702   0.0939769317609416    0.511465954184817 
92 1    0.466359463257618    0.490074684752358    0.651903429426397     1.12608564763308   -0.111884881732589    0.476894143821014 
93 1    0.331778730537735    0.656186933205049    0.681287789304747    0.425231602804482     1.80836244043079    0.197614595930457 
94 1    0.340930924973009    0.843062645359055    0.837066499709863    0.582154985795409   0.0213043707908553    0.261775804513281 
95 1    0.513362341912853    0.675438826704067    0.823597956702656    0.113289678234058   -0.294553955081229   -0.290876343889418 
96 1    0.493993417927982    0.851458863766766    0.666302909253204    0.358718967152601    -0.05812364219166   0.0358317011652439 
97 1    0.678155888696779  0.00420512127357142     0.59596953460732     -1.3960603231642   -0.608096244487077    0.381546967955854 
98 1    0.685283912478099    0.161535693024121    0.848708143891145   -0.764257308766655    0.306273108106609   -0.911638934663387 
99 1    0.853837886782685  0.00970268548326203    0.843145974431195   0.0435022284708202   -0.526833936033699   -0.412525901901979 
100 1    0.840678441327555    0.111086668410053    0.639006157614631     0.84573392886193    0.807963081750306    0.304851152525604 
101 1     0.68447265753673    0.310995447237588    0.681719404984733    0.216054382623071   -0.366393814157174   -0.296771215270819 
102 1    0.686935676151847    0.503915186346717    0.818002567654844   -0.874186808663138    0.449680026660405    0.220081220166398 
103 1     0.82688491073111    0.348577625444818    0.848509396665804   -0.655908915095566   -0.380960255042216    0.690771547177362 
104 1    0.848285924527204    0.492615124168537    0.683411472745547   -0.418272881269576    0.568236867809801   -0.569117366998162 
105 1    0.666000650750902    0.694300301712019    0.650217757722771   -0.229873981337636   -0.411370938796758       0.167492740174 
106 1    0.674180346441517    0.876032960367183    0.815987816143661   -0.147295206497545   -0.386100470767061   0.0440296426141053 
107 1    0.845056014908664    0.684636161599315    0.812477419847255   -0.257076053199919  -0.0350834688546965    0.222024029605105 
108 1    0.817714158245963    0.847177610405424    0.652621924631717    0.419222310913432  -0.0761229790419464   -0.252473063059468 
ITEM: TIMESTEP
200
ITEM: NUMBER OF ATOMS
108
ITEM: BOX BOUNDS pp pp pp
-2.5805933660250258e-01 1.2408059336602495e+01
-2.5805933660250258e-01 1.2408059336602484e+01
-2.5805933660250258e-01 1.2408059336602484e+01
ITEM: ATOMS id type xsu ysu zsu fx fy fz 
1 1 -0.00766693946980013  -0.0133874672777097   0.0107746702333316    0.185222893628174    0.173739280853225    0.120222510364226 
2 1   0.0132335103485275    0.166200926900842    0.166128273402023    0.165191890922256    -0.30175177609539   -0.342141094148269 
3 1    0.194879795071301   -0.023059277234438    0.195691733482818   -0.187705242524797    0.210878743431111   -0.784413837511396 
4 1    0.191856501331472    0.177768080819419 0.000143939122835945    -0.11216751028912    -0.16680006812499   0.0737951989057553 