LAMMPS (17 Nov 2016)
units metal
dimension 3
boundary p p p
atom_style atomic
read_data structure.inp
  orthogonal box = (0 0 0) to (12.15 12.15 12.15)
  1 by 1 by 1 MPI processor grid
  reading atoms ...
  108 atoms
include potential.inp
pair_style eam/alloy
pair_coeff * * AlAg.lammps.eam Al Ag
fix 1 all npt temp 1000 1000 1.0 iso 0.0 0.0 1.0
variable  dumptime equal 100
dump 1 all custom ${dumptime} dump.out id type xsu ysu zsu fx fy fz
dump 1 all custom 100 dump.out id type xsu ysu zsu fx fy fz
dump_modify 1 sort id format line "%d %d %20.15g %20.15g %20.15g %20.15g %20.15g %20.15g"
thermo_style custom step temp pe etotal pxx pyy pzz vol
thermo_modify format  float %20.15g
thermo 100
velocity all create 2000 63738 dist gaussian
run 10000
Neighbor list info ...
  1 neighbor list requests
  update every 1 steps, delay 10 steps, check yes
  max neighbors/atom: 2000, page size: 100000
  master list distance cutoff = 8.5
  ghost atom cutoff = 8.5
  binsize = 4.25 -> bins = 3 3 3
Memory usage per processor = 3.93753 Mbytes
Step Temp PotEng TotEng Pxx Pyy Pzz Volume 
       0                 2000    -362.880399705225    -335.218728675225     9222.71208321055     3741.12868425832      4807.6236291333          1793.613375 
     100     848.205479452917    -348.632087045312    -336.900696576077     -696.80894348364     1063.57557620286    -84.4600853516794     1901.67556343898 
     200     697.660036264756    -345.368989617323    -335.719768410356    -27700.0363139972    -31255.4840766724    -30722.7399721488     2032.03254018786 
     300     781.500521545349    -347.445390312763    -336.636585144382    -11226.8746739729    -11468.3618873568    -14665.4825848163     1956.74320804148 
     400     948.454030394231    -349.464699813283    -336.346788125362     22122.7295492325     19206.0276359481     22292.3924745339     1836.33974773901 
     500     854.823637810723     -348.19166100135    -336.368735872456     21525.2131383899     14813.1985860791     16332.4711954219     1854.72892238476 
     600     790.456381715083    -347.148636663808    -336.215964466525    -9149.35041981642    -6872.42635510988    -11727.3238336072     1950.54611672639 
     700     747.563246295189    -346.258267931938     -335.91884363537    -12696.4593633159    -9137.69209575837    -10440.5612476711     1961.13025872951 
     800     898.144102865625    -348.181609441594    -335.759526086092    -1174.11288588453     6629.85315559622     4969.31115586197     1897.50668389631 
     900     924.389001581337    -348.122091648533    -335.337019415786     9918.21425956963     10970.3484972586     8703.41567840034     1874.71313450294 
    1000     926.450278966882    -348.003663517624    -335.190082096408    -4829.39752476668     -3178.1943797654     639.528443232711     1917.89214943357 
    1100     825.246270915919    -346.267186900519    -334.853341468114    -9585.90311340515    -12337.3839631326    -10375.4424422228     1964.87735506146 
    1200     870.911176508973    -346.757135562778    -334.711706332307    -7324.35502476754    -6041.70726775013    -13878.3803029802     1951.26885446123 
    1300     958.823073934368    -347.674120715335    -334.412796491762      9818.5399918003     7912.16783261531     6141.14121958523     1898.74087934596 
    1400     833.222146551301     -345.77057626631    -334.246417809904     11353.0797475503     8642.11862450675     15153.6855901327     1904.21387701934 
    1500     939.745644349513    -347.066054824568    -334.068587391632    -8835.06643053772    -8693.68046768323    -11789.5336098182     1954.54028842671 
    1600     943.845953913266    -346.933224443002     -333.87904630293    -13798.2460427733    -9358.98723919241    -7434.23603603145     1957.95844415682 
    1700     936.183372540853    -346.695058273155    -333.746860035665      2047.7731613341      6625.6330703931     1814.58671096439     1917.74233248341 
    1800     1019.64783908105    -347.630290216884    -333.527708671328     6906.52934434501     7210.82636697738    -54.4673394255999     1904.56338742492 
    1900     936.356426678603    -346.364927673201    -333.414335952396    -2771.89555180754     -291.74306735315     1687.37447069782     1930.81712750013 
    2000     860.461593487316    -345.121766364129    -333.220863597631    -7581.17810573842    -4603.37145019708     2949.80112208969     1956.59013928735 
    2100     921.046711347426    -345.825312645634    -333.086467079357    -4110.52118010701    -8026.10097015385    -5777.58947653722     1952.47143216288 
    2200     950.777900219306     -346.06082869965     -332.91077595042     5490.57583530135     6306.51441443645     5489.68298507348     1920.11813234483 
    2300     928.033307727664    -345.552000122342     -332.71652409072     6002.53713380563     15784.1995939625     5965.78601941363      1915.2007831975 
    2400     923.850163215833    -345.354905848599    -332.577286200655    -1770.99440795037     2996.45727400412     2067.07612666139     1946.41105540442 
    2500     855.390551977091    -344.207092923639    -332.376326898159    -9775.19896102491    -7518.85243824041    -700.253656568389     1978.34211308084 
    2600     934.485008516045    -345.138741754273    -332.214033310255    -10264.8570094774     447.555401326009    -3595.86818181572       1966.744719075 
    2700     849.078601923917    -343.725880644934    -331.982414162418     5834.22051276787     9016.75831052337     4162.50183751504     1946.58202425182 
    2800     901.437783076139    -344.215049514876    -331.747411810144     5691.67546899039     -7285.4361904614    -3234.81555392896      1962.3368033163 
    2900     1009.83507057052    -345.484422527343    -331.517559769004     -1298.0875037713    -2271.94317408489    -4509.06337212281     1952.53400133636 
    3000     867.334252250231    -343.250638504735    -331.254681125336     9163.22588656036     15889.1584431757     12099.4993560623     1934.58140345474 
    3100     886.252403744186    -343.378786841432    -331.121175620473      608.93442090474     10942.5976203403      17.404677931531     1965.16196585435 
    3200     831.977445520286    -342.336128603264    -330.829185402083    -6366.20747844177     1837.27662680993    -9157.30725801787     2001.97042879793 
    3300     944.747084077874    -343.706502304342    -330.639860781185    -9025.80938759753    -13476.1914437177    -5391.42511735051     1996.58594279183 
    3400     966.318881123644     -343.78054118394     -330.41554368408      7364.0330497147    -1158.36417288689     4714.30192022107     1948.79326669929 
    3500     1150.24554480429    -346.010145210692    -330.101288278642     6547.11955404746     1407.51534524865     6123.03854897315     1924.61165053537 
    3600     1029.95333922283    -344.281124002948    -330.036008780032     2232.54805608871    -231.499347385122     3665.60857664574     1954.40259969852 
    3700     891.148998251972    -342.128193291381    -329.802858077201    -5025.29929694965    -9095.79614251251    -7117.91101683173     2007.16264432231 
    3800     920.859464081573    -342.343786424571    -329.607530644428    -4892.41387787803     -11957.648505111    -8827.51808459996     2010.19024407563 
    3900     949.044451447903    -342.551951768336    -329.425874063936     1179.63264811457     5398.06312778194     1290.59095077719     1981.96074134094 
    4000     978.094332464864    -342.730312889927    -329.202451059452    -2009.55516915885      6128.9483600425     5618.48699753361      1974.8187362717 
    4100     942.107691740721    -342.050448455437    -329.020311933555     -842.70382572777     1490.51016838247     3059.01134383303     1988.88002903539 
    4200     963.441004758645     -342.14627077966    -328.821076714437    -5280.85937873476    -7409.98050420007    -3961.60658922159     2008.63594668677 
    4300     916.996987772156      -341.3252669028    -328.642432397173     10434.9752109365     3990.48240281288    -1186.38542892539     1994.67922399278 
    4400     924.077986447452    -341.220569180426    -328.439798546839     1957.27889482641     3962.57991880434    -1200.55224751722     1996.06081760522 
    4500     930.996453179843    -341.123396698361    -328.246937889382    -179.894685317379     2626.41587571331    -4864.83343755357     2014.37930584986 
    4600     982.262307552818    -341.622817326929    -328.037308918582    -4722.27803031075    -5053.28908412141     -3537.5714260397     2016.10568157484 
    4700     1097.77853128397    -343.060218647393    -327.877024349306    -86.9401852518371    -2599.65748384154     374.218076933565     1984.33754869101 
    4800     1115.81167391079    -343.062849945088    -327.630242217511       9564.982101107     7792.78050988657     6332.33638647961     1957.75814736569 
    4900     1046.48517750073    -342.032837435817    -327.559073076919    -1509.35974629019     7573.87714293116     2719.58317639852     1989.53856611317 
    5000     947.290388102579    -340.495189924165    -327.393372381378    -7575.14799451555    -9560.24784336373    -8700.16726834929     2038.65766291288 
    5100     1048.26932262516    -341.836314570689     -327.33787399404    -10136.9431782873    -7879.31811347357     -11556.786533457     2029.64085039035 
    5200     956.904172192677    -340.400675244279    -327.165891035065     17197.3403600388     8004.75888723261     15914.6530520898     1971.79066323278 
    5300      956.71579894674    -340.403441171636    -327.171262321802     12683.3882627714     5119.29396086931     13209.6965763754     1988.56793800976 
    5400      787.58257726485    -337.986581364649    -327.093656284019    -1662.75528721866    -4711.37066392881    -3390.02492572345     2064.65785289735 
    5500     809.680395473768    -338.067298649847    -326.868742280329    -12624.2928402744    -10493.6154835647    -8875.45780859435     2083.16556672137 
    5600     890.824351062269     -339.17632131473    -326.855476242431     10968.0296903062     2721.80008644101     6443.76499091429     2016.62380197311 
    5700      929.92523427562    -339.414141180445    -326.552498223931      13620.867483037     11809.9066038446     8799.17573786076     1997.99515149885 
    5800     750.916332500902    -336.888242070496    -326.502441790149     6936.69159035381     3553.19518001227     1527.56850797939     2051.60924361876 
    5900     890.598180918506    -338.491439911173    -326.173722960931    -12992.6638669923    -9413.60994503042    -16353.6658142548     2100.29706276373 
    6000     861.616231913264     -337.97670367449    -326.059831293844     1590.72374928603    -6881.69969459675    -9803.01299575279     2072.05664017884 
    6100     929.422208512462    -338.615206076964     -325.76052038704     6136.82747393331    -666.775499678519     4801.19838237028     2020.50229086441 
    6200     872.200289704137    -337.561266564406    -325.498007821373     12593.3539994015     6847.30966797888      16459.799037444     2012.93578563802 
    6300     873.792128454772    -337.469477398119    -325.384202195159    -6848.55146347321     1851.83263485692    -3458.44232066691     2069.28325082059 
    6400      810.09403203698    -336.276015449153    -325.071738140366    -3051.03343963547    -5601.20185152162    -13320.4981303424     2106.49838884653 
    6500     944.440383906593    -338.054640383787    -324.992240780251    -20755.2203865122      1342.0728821523    -5348.93572328383     2077.29379412323 
    6600     894.589238862597    -337.062038595145    -324.689121978947      5219.0809523671     26296.9987548161     16954.2633284994     2020.91546931234 
    6700     958.969548999883    -337.937092191639    -324.673742095528     9545.97365205375    -3.40327541013284    -2817.83520696911     2055.76503682265 
    6800     864.731934233051    -336.351565059346    -324.391599912401    -7723.05878210302    -2648.94832177106    -10823.0113524289     2113.20791153325 
    6900     889.525422458804    -336.606689967659     -324.30381016322    -4491.24414998892    -10483.7934647637    -9387.54878316241     2101.01049111218 
    7000     979.103714336147    -337.612376680492    -324.070554255383      11021.363200981      6198.5193475841     7699.27992250767     2044.00786750198 
    7100     917.586927674177    -336.607815959454    -323.916822092078      5704.3661429202      11017.600142051     7088.08737515455     2047.29984856206 
    7200     946.688456899063    -336.858977614491    -323.765485283171     -2288.7953154815     151.263981328005    -7236.86878169108     2088.16575352847 
    7300     911.757303825327    -336.182127254762    -323.571761955954    -5435.70265132981    -7809.85358611202    -2868.61090711965     2098.49984629527 
    7400     998.621116231378    -337.275852116412     -323.46408771601    -5549.68676671532     18759.2158307311     128.607133326177     2060.52936869774 
    7500     978.261276118881    -336.786042699849    -323.255871899154     11266.7053639551     9576.61862160754     3138.67967873515     2050.60116515663 
    7600     1050.99336359916    -337.632311514918    -323.096195175621    -10799.1812486821    -2312.24350278803    -7914.47226828267     2082.76216218247 
    7700     961.585737901392    -336.249330237162    -322.949796062678    -4667.71633483659     2605.48191444552     1406.33921605594     2084.80155378269 
    7800     1008.69516951746    -336.769108819947    -322.818011845576    -5385.45023144071    -880.095252129113     6226.32224716467     2076.71543359681 
    7900     916.361643100015    -335.365653705941    -322.691606547969     6074.07152629211     7051.91674817457     4343.31072677827      2074.8181960316 
    8000     906.188774611482    -335.098298134444    -322.564950247253     2867.18384865255    -13090.0163116938     5822.00711508333     2095.90185039041 
    8100     892.855222446897    -334.764286093265    -322.415352372893     10115.6601199837    -5955.44227223953    -2697.05197344089     2099.33676316893 
    8200     926.577571215049    -335.085358770433     -322.27001679107     1072.95478006518    -2000.96893988864    -2140.55596806375     2087.32219180782 
    8300     1039.62549239798    -336.475074671727    -322.096185489169    -106.777672607818     1139.33384390278    -4028.28158157953     2076.31483273886 
    8400     967.383323827151    -335.302368578435    -321.922648946628     4128.42957772444     6476.68672474778     5870.76447958208     2074.54080310048 
    8500     966.370203907723    -335.183130026928    -321.817422690083     6893.41140226329     4825.74109056582     5525.17502542439     2088.53934025182 
    8600     1002.45741398057    -335.482521136893    -321.617697533335    -13910.5609624311     -11293.937420616    -2003.54558554525     2122.31309982731 
    8700     922.188177593359    -334.239936951675    -321.485303953504     -9910.7202335001    -1524.34646921628     8303.72920995802     2112.70026039828 
    8800     1028.71168363489    -335.588288232406    -321.360346143693    -1994.74323330866     3054.10387571645     2978.72428925785     2080.64719819252 
    8900     1012.24114315281     -335.17054820098    -321.170407448518     11217.8056272568     10562.8084337449     7956.66055955502     2063.46838885623 
    9000     962.641287152387    -334.368917634803     -321.05478433225    -2203.67259810135     10887.5163739106    -7861.08952065278     2103.06872640897 
    9100     1012.23996966099    -334.866451416945    -320.866326894856    -3392.21469246654    -10378.7274004917    -7196.61173547919     2130.71250654233 
    9200     1009.73710419895    -334.788137205095    -320.822629403527     -5776.6719772096     2602.06414728411     -2585.3459156442     2103.53796059222 
    9300     1085.67136513994    -335.638090930202    -320.622348855605     12148.4684834764     9906.06543214839      10062.967168633     2055.66126720865 
    9400     1123.75235349576    -336.155986714131    -320.613552753337     4809.87806822233      -3391.601546224     6933.09160723971     2076.98050678786 
    9500     989.032025637812    -334.139959935952    -320.460820670288    -6303.01799064453    -6413.77931069974    -6536.73658499164     2139.08889250096 
    9600     993.029629238328    -334.112585383765    -320.378155920249    -15179.1339121574    -11617.3393372525    -2263.24435128032     2149.92542051813 
    9700     1046.39013131151    -334.799769221452    -320.327319430763      3744.6992983918     1446.42197515883     10193.2053477776     2095.52469768329 
    9800     1174.48259384419    -336.416564104075    -320.172488533385     16279.8922009115     4591.44122435351     477.275824003618     2069.23662285585 
    9900     1006.93596877038    -334.110907144598    -320.184141386398    -1282.71008208361     9347.46398460053     6630.23355734319     2094.34466322152 
   10000     989.881444644448    -333.800191066887    -320.109303626659    -8217.67862931305    -3847.02358210158    -4790.89873462832     2135.39235189687 
Loop time of 2.58606 on 1 procs for 10000 steps with 108 atoms

Performance: 334.099 ns/day, 0.072 hours/ns, 3866.892 timesteps/s
100.0% CPU use with 1 MPI tasks x no OpenMP threads

MPI task timing breakdown:
Section |  min time  |  avg time  |  max time  |%varavg| %total
---------------------------------------------------------------
Pair    | 2.37       | 2.37       | 2.37       |   0.0 | 91.65
Neigh   | 0.043468   | 0.043468   | 0.043468   |   0.0 |  1.68
Comm    | 0.062571   | 0.062571   | 0.062571   |   0.0 |  2.42
Output  | 0.033999   | 0.033999   | 0.033999   |   0.0 |  1.31
Modify  | 0.060272   | 0.060272   | 0.060272   |   0.0 |  2.33
Other   |            | 0.01572    |            |       |  0.61

Nlocal:    108 ave 108 max 108 min
Histogram: 1 0 0 0 0 0 0 0 0 0
Nghost:    1264 ave 1264 max 1264 min
Histogram: 1 0 0 0 0 0 0 0 0 0
Neighs:    7063 ave 7063 max 7063 min
Histogram: 1 0 0 0 0 0 0 0 0 0

Total # of neighbors = 7063
Ave neighs/atom = 65.3981
Neighbor list builds = 163
Dangerous builds = 0
Total wall time: 0:00:02
