ITEM: TIMESTEP
0
ITEM: NUMBER OF ATOMS
108
ITEM: BOX BOUNDS pp pp pp
0.0000000000000000e+00 1.2150000000000000e+01
0.0000000000000000e+00 1.2149999999999990e+01
0.0000000000000000e+00 1.2149999999999990e+01
ITEM: ATOMS id type xsu ysu zsu fx fy fz 
1 1                    0                    0                    0 -5.55111512312578e-16 2.32730501537048e-14 2.34534613952064e-14 
2 1                    0    0.166666666666629    0.166666666666629 -1.38777878078145e-16 9.71445146547012e-17 2.63677968348475e-16 
3 1    0.166666666666629                    0    0.166666666666629  1.0547118733939e-15 2.37310171513627e-14  2.4980018054066e-16 
4 1    0.166666666666629    0.166666666666629                    0 1.13797860024079e-15 1.21430643318376e-15 2.44734787990808e-14 
5 1                    0    0.333333333333371                    0 -3.19189119579733e-16 -7.63278329429795e-17 2.19685380997703e-14 
6 1                    0                  0.5    0.166666666666629 -6.38378239159465e-16 3.13192126313172e-16 5.27355936696949e-16 
7 1    0.166666666666629    0.333333333333371    0.166666666666629 1.94289029309402e-16 -9.08995101411847e-16 3.59087759527199e-16 
8 1    0.166666666666629                  0.5                    0 1.49880108324396e-15 1.78781550111071e-15 2.45278481498992e-14 
9 1                    0    0.666666666666629                    0 -5.27355936696949e-16 9.29811783123569e-16 2.32938668354166e-14 
10 1                    0    0.833333333333371    0.166666666666629 -5.96744875736022e-15 -2.47198095326695e-14 1.11022302462516e-15 
11 1    0.166666666666629    0.666666666666629    0.166666666666629 2.05391259555654e-15 1.26634813746307e-16 -4.66640615037761e-16 
12 1    0.166666666666629    0.833333333333371                    0 2.88657986402541e-15 -2.39183672867682e-14 2.31065167000111e-14 
13 1    0.333333333333371                    0                    0 -1.00855196590033e-15 2.29551010903599e-14 2.30938688040427e-14 
14 1    0.333333333333371    0.166666666666629    0.166666666666629 -1.46917525888079e-15 3.33371839248559e-16 2.90003752349138e-16 
15 1                  0.5                    0    0.166666666666629 2.07305554016449e-15 2.38018595989393e-14 1.52655665885959e-16 
16 1                  0.5    0.166666666666629                    0 1.95291916318951e-15 1.02695629777827e-15 2.45512838574838e-14 
17 1    0.333333333333371    0.333333333333371                    0 -3.11816544806831e-16 -5.53901949263899e-16 2.32203071061452e-14 
18 1    0.333333333333371                  0.5    0.166666666666629 -3.60307486971245e-16 1.07339308014863e-15 -4.15988044791954e-16 
19 1                  0.5    0.333333333333371    0.166666666666629 1.41214510655716e-15 -1.12757025938492e-16 3.33348122326035e-16 
20 1                  0.5                  0.5                    0 2.86648146625296e-15 1.02176906800928e-15 2.46263614697966e-14 
21 1    0.333333333333371    0.666666666666629                    0 -2.53922859301536e-15 1.48466579742018e-15 2.38161947845386e-14 
22 1    0.333333333333371    0.833333333333371    0.166666666666629 -2.80542733141487e-15 -2.47379631427951e-14 -4.12911621127526e-17 
23 1                  0.5    0.666666666666629    0.166666666666629 -3.6120664305677e-16 -2.60208521396521e-16 1.97758476261356e-16 
24 1                  0.5    0.833333333333371                    0 -5.8261636617582e-16 -2.42583730880597e-14 2.46768886791662e-14 
25 1    0.666666666666629                    0                    0 1.81799020282369e-15 2.40953090813179e-14 2.42913328341032e-14 
26 1    0.666666666666629    0.166666666666629    0.166666666666629 1.04083408558608e-16 4.04190569902596e-16  4.0766001685455e-16 
27 1    0.833333333333371                    0    0.166666666666629 2.08166817117217e-16 2.24299745443801e-14 2.22044604925031e-16 
28 1    0.833333333333371    0.166666666666629                    0 1.94289029309402e-16 1.23512311489549e-15  2.3189783426858e-14 
29 1    0.666666666666629    0.333333333333371                    0 1.08246744900953e-15 1.22921421305544e-16 2.34395836073986e-14 
30 1    0.666666666666629                  0.5    0.166666666666629 1.66533453693773e-16                    0 9.71445146547012e-17 
31 1    0.833333333333371    0.333333333333371    0.166666666666629 -1.38777878078145e-16 -5.70425867998936e-17 3.88578058618805e-16 
32 1    0.833333333333371                  0.5                    0 2.77555756156289e-16 1.26287869051112e-15 2.33493779866478e-14 
33 1    0.666666666666629    0.666666666666629                    0 1.60982338570648e-15 4.77048955893622e-16 2.45012343746964e-14 
34 1    0.666666666666629    0.833333333333371    0.166666666666629 9.97465998686664e-16 -2.32730501537048e-14 9.71445146547012e-17 
35 1    0.833333333333371    0.666666666666629    0.166666666666629 2.66453525910038e-15 1.38777878078145e-15 1.42941214420489e-15 
36 1    0.833333333333371    0.833333333333371                    0 1.66533453693773e-15 -2.39530617562878e-14 2.40224506953268e-14 
37 1                    0                    0    0.333333333333371 -2.77555756156289e-16 2.30891694652513e-14 -8.88178419700125e-16 
38 1                    0    0.166666666666629                  0.5 -5.68989300120393e-16 1.02695629777827e-15 9.47159017883337e-16 
39 1    0.166666666666629                    0                  0.5 1.41553435639707e-15 2.41959230429245e-14 1.55812049460607e-15 
40 1    0.166666666666629    0.166666666666629    0.333333333333371 8.32667268468867e-17 3.90312782094782e-16 -6.24500451351651e-16 
41 1                    0    0.333333333333371    0.333333333333371 -9.71445146547012e-17 6.93889390390723e-17 1.17961196366423e-16 
42 1                    0                  0.5                  0.5 -4.96824803519758e-15 1.97201467395242e-15 8.92854041568969e-16 
43 1    0.166666666666629    0.333333333333371                  0.5 -1.72084568816899e-15 -2.53269627492614e-16 1.02348685082632e-15 
44 1    0.166666666666629                  0.5    0.333333333333371 -1.84574577843932e-15 7.70252239692037e-16 -2.0122792321331e-16 
45 1                    0    0.666666666666629    0.333333333333371 -5.60662627435704e-15 6.24500451351651e-17 2.63677968348475e-16 
46 1                    0    0.833333333333371                  0.5 -5.32907051820075e-15 -2.64267774330307e-14 1.73472347597681e-15 
47 1    0.166666666666629    0.666666666666629                  0.5 5.55111512312578e-17 5.06539254985228e-16 7.52869988573934e-16 
48 1    0.166666666666629    0.833333333333371    0.333333333333371 -1.20736753927986e-15 -2.4605317783255e-14 -9.35015953551499e-16 
49 1    0.333333333333371                    0    0.333333333333371 -3.76163943743846e-16  2.4120791220503e-14 -1.22018484183771e-15 
50 1    0.333333333333371    0.166666666666629                  0.5 -3.75540527494667e-16 -1.10700429942559e-16 1.48073217641313e-15 
51 1                  0.5                    0                  0.5 2.75899637337818e-15  2.4495620240322e-14   7.950827225333e-16 
52 1                  0.5    0.166666666666629    0.333333333333371 1.43258134858906e-15  2.4980018054066e-16 -3.46944695195361e-16 
53 1    0.333333333333371    0.333333333333371    0.333333333333371 -9.20311461587164e-16 -1.06593336587912e-15 -9.09713385351119e-16 
54 1    0.333333333333371                  0.5                  0.5 7.46581615973518e-16 1.84680401059794e-15 6.91422830448318e-16 
55 1                  0.5    0.333333333333371                  0.5 2.33746534497939e-15 -1.21159592775255e-17 6.28417131699754e-16 
56 1                  0.5                  0.5    0.333333333333371 2.38239874876534e-15 4.31658154316159e-16 1.36907629330607e-16 
57 1    0.333333333333371    0.666666666666629    0.333333333333371 -1.19655262260931e-15  6.7776527120679e-16 -2.93649382154121e-16 
58 1    0.333333333333371    0.833333333333371                  0.5 -1.38821246165044e-15 -2.52308109572209e-14 1.80403448798473e-15 
59 1                  0.5    0.666666666666629                  0.5 4.76981193257842e-16 -1.52655665885959e-16 -6.29955343531968e-17 
60 1                  0.5    0.833333333333371    0.333333333333371 -4.78770126842443e-16 -2.48566629518915e-14 -9.68070567285151e-16 
61 1    0.666666666666629                    0    0.333333333333371 1.00613961606655e-15 2.43693953905222e-14 -5.13478148889135e-16 
62 1    0.666666666666629    0.166666666666629                  0.5 2.91433543964104e-16 4.61436444609831e-16 5.13478148889135e-16 
63 1    0.833333333333371                    0                  0.5 2.42861286636753e-16 2.29399832463173e-14 1.08940634291343e-15 
64 1    0.833333333333371    0.166666666666629    0.333333333333371 -7.63278329429795e-17 2.63677968348475e-16 -7.97972798949331e-17 
65 1    0.666666666666629    0.333333333333371    0.333333333333371 8.35343892582191e-17 5.67579837296162e-17 4.27074012005618e-17 
66 1    0.666666666666629                  0.5                  0.5 6.93889390390723e-16 8.15320033709099e-16 -4.63171168085807e-16 
67 1    0.833333333333371    0.333333333333371                  0.5 1.81799020282369e-15 1.30227588695381e-15 2.24820162486594e-15 
68 1    0.833333333333371                  0.5    0.333333333333371  1.8249290967276e-15 2.11983208764366e-15 1.16573417585641e-15 
69 1    0.666666666666629    0.666666666666629    0.333333333333371 1.52829138233557e-15 -3.05311331771918e-16 4.22893057377971e-16 
70 1    0.666666666666629    0.833333333333371                  0.5 2.24820162486594e-15 -2.46434816997265e-14 7.56339435525888e-16 
71 1    0.833333333333371    0.666666666666629                  0.5  4.3159920082303e-15 2.70616862252382e-16 1.38777878078145e-15 
72 1    0.833333333333371    0.833333333333371    0.333333333333371 3.36932765758816e-15 -2.59568706589483e-14 -8.46030060244751e-16 
73 1                    0                    0    0.666666666666629 -5.96744875736022e-16 2.25514051876985e-14 -1.38777878078145e-17 
74 1                    0    0.166666666666629    0.833333333333371 -6.43929354282591e-15 3.88578058618805e-15 -2.51881848711832e-14 
75 1    0.166666666666629                    0    0.833333333333371 3.40005801291454e-15 1.81504117291453e-14 -2.48481790698918e-14 
76 1    0.166666666666629    0.166666666666629    0.666666666666629 1.80411241501588e-15 1.47278023110431e-15 3.92047505570758e-16 
77 1                    0    0.333333333333371    0.666666666666629 -5.68989300120393e-15 -2.92127433354494e-15 7.49400541621981e-16 
78 1                    0                  0.5    0.833333333333371 -4.77395900588817e-15 -1.29398851659787e-15 -2.62290189567693e-14 
79 1    0.166666666666629    0.333333333333371    0.833333333333371 -1.4432899320127e-15  -2.468511506315e-15 -2.52593085336983e-14 
80 1    0.166666666666629                  0.5    0.666666666666629 -4.16333634234434e-16 -4.45823933326039e-16 5.20417042793042e-18 
81 1                    0    0.666666666666629    0.666666666666629 -5.41233724504764e-15 1.33226762955019e-15 -5.41233724504764e-16 
82 1                    0    0.833333333333371    0.833333333333371 -5.28743715477731e-15 -2.34950947586299e-14 -2.61700383585861e-14 
83 1    0.166666666666629    0.666666666666629    0.833333333333371 9.99200722162641e-16 1.73298875250083e-15 -2.37032615757471e-14 
84 1    0.166666666666629    0.833333333333371    0.666666666666629 1.04083408558608e-15 -2.31203944878189e-14 1.35828848168984e-15 
85 1    0.333333333333371                    0    0.666666666666629 -2.66261080024421e-15 2.30807025239105e-14 5.54826909242301e-16 
86 1    0.333333333333371    0.166666666666629    0.833333333333371 -2.94892148894332e-15 1.55498647270123e-15 -2.5147415481366e-14 
87 1                  0.5                    0    0.833333333333371 -5.4917550541822e-16 2.00413517975184e-14 -2.52436960224145e-14 
88 1                  0.5    0.166666666666629    0.666666666666629 -3.36164961004144e-16 1.85962356624714e-15 -2.20309881449055e-16 
89 1    0.333333333333371    0.333333333333371    0.666666666666629 -1.4528851212392e-15 -2.47701232897364e-15 1.37338260880991e-15 
90 1    0.333333333333371                  0.5    0.833333333333371 -1.37414493846244e-15 -7.06293340870315e-16 -2.46439729788359e-14 
91 1                  0.5    0.333333333333371    0.833333333333371 -6.83467497007706e-16 -2.24486770318555e-15 -2.54184897414099e-14 
92 1                  0.5                  0.5    0.666666666666629 2.06167819361697e-16 -1.31887095645641e-15 -4.64905891561784e-16 
93 1    0.333333333333371    0.666666666666629    0.666666666666629 -3.2172886316878e-15 2.08485979131742e-15 2.96309065608499e-16 
94 1    0.333333333333371    0.833333333333371    0.833333333333371 -4.51972714896748e-15 -2.23702553334669e-14 -2.50847621483235e-14 
95 1                  0.5    0.666666666666629    0.833333333333371 -3.34801630863524e-15 1.26981758441502e-15 -2.38004060904018e-14 
96 1                  0.5    0.833333333333371    0.666666666666629 -2.91433543964104e-15 -2.34048891378791e-14 6.52256026967279e-16 
97 1    0.666666666666629                    0    0.666666666666629 1.85962356624714e-15 2.37518338330744e-14 -3.22658566531686e-16 
98 1    0.666666666666629    0.166666666666629    0.833333333333371 1.63410951437015e-15 2.10595429983584e-15 -2.38212227721135e-14 
99 1    0.833333333333371                    0    0.833333333333371 1.98105420956551e-15  1.9744622603568e-14 -2.51465515077598e-14 
100 1    0.833333333333371    0.166666666666629    0.666666666666629 2.81719092498633e-15 3.80251385934116e-15 1.60982338570648e-15 
101 1    0.666666666666629    0.333333333333371    0.666666666666629 2.00707506170517e-15 -2.26685797965771e-15 6.03683769639929e-16 
102 1    0.666666666666629                  0.5    0.833333333333371 2.50494069931051e-15 -1.88564441838679e-15 -2.41300035508374e-14 
103 1    0.833333333333371    0.333333333333371    0.833333333333371 3.46647217224286e-15 -3.2607854675952e-15 -2.65882557940952e-14 
104 1    0.833333333333371                  0.5    0.666666666666629 3.60822483003176e-15 -3.57353036051222e-16 -1.2490009027033e-16 
105 1    0.666666666666629    0.666666666666629    0.666666666666629 3.06005221162309e-15 4.30211422042248e-16 -8.06646416329215e-16 
106 1    0.666666666666629    0.833333333333371    0.833333333333371  3.6498581934552e-15 -2.2310820725624e-14 -2.43940609899462e-14 
107 1    0.833333333333371    0.666666666666629    0.833333333333371 3.35322047906317e-15 1.87350135405495e-15 -2.52957377266938e-14 
108 1    0.833333333333371    0.833333333333371    0.666666666666629 4.13558076672871e-15 -2.48100151534203e-14 8.60422844084496e-16 
ITEM: TIMESTEP
100
ITEM: NUMBER OF ATOMS
108
ITEM: BOX BOUNDS pp pp pp
-3.2484153122957160e-02 1.2182484153122969e+01
-3.2484153122957160e-02 1.2182484153122958e+01
-3.2484153122957160e-02 1.2182484153122958e+01
ITEM: ATOMS id type xsu ysu zsu fx fy fz 
1 1 -0.00436478065864776  0.00949101681123921  0.00417600570040122    0.454213370263648   0.0552775853712855  -0.0502204470632479 
2 1 -0.00397048242621167    0.173063217048821     0.15544816033082    0.371949584292412  -0.0467513061123063    0.172727143420124 
3 1    0.165270692904187  -0.0140966088258665    0.166706769914185     0.15042010264788   0.0208143875672251  -0.0126659238981957 
4 1    0.174285023366906    0.158382797241075   0.0135294173943521   -0.243832424813172    0.559177712313206    -0.12285117558471 
5 1  -0.0239103841824999     0.35354214080678   0.0133887165201259    0.346773381497748   -0.257565500765051   -0.089507581444611 
6 1  -0.0112034614376739    0.491771183666629    0.187441105947414    0.536085340755142    0.735385498943823   -0.877770581857019 
7 1    0.163488184260018    0.338415765638274    0.164654806165458    0.216110082568469   -0.118734233871485   -0.144079178834918 
8 1    0.149419740711551    0.499675721045833  -0.0062195237185847     0.46848574934977   -0.257789621743325    0.390916909455741 
9 1 -0.000802260024670431    0.658969033452877 -0.00834423734556822   -0.390754386382436    0.466114898134386    0.210563742520106 
10 1  -0.0133076414498987    0.842632841238355    0.166313023248335     0.17807045996334   -0.286053830830369   -0.267245254424729 
11 1    0.172202694082671    0.666893973429637    0.173617197651993   -0.781484402389591   -0.136696068223256   -0.470902824822061 
12 1    0.167056456284968    0.829485357921726  -0.0101199159695966   -0.193563250552377    0.048370604825146     1.02462822221562 
13 1    0.323962842096194 -0.00730225692086606   0.0021383560955428    0.534206152903892  -0.0832002179985146  -0.0621521832921259 
14 1    0.344170193580453    0.144576776660529    0.167030070769101   -0.377879926406228    0.145802004695239    0.108674056485668 
15 1     0.52858910105283 -0.00709331454231688    0.165912808132816   -0.923392337595198   0.0267285673590151    0.101546533140053 
16 1    0.497102096670233    0.156634532362887  -0.0015748773754467   -0.273128873802411    0.651080528771941    0.220869932043312 
17 1    0.331259976229376    0.339067360065428 -0.00203953539465829   -0.180265324996281   -0.181682125203912    0.121035280419861 
18 1    0.323814312687773    0.511883208662994    0.164610290232758  -0.0253305683784052   -0.411650796312972    0.476493930937946 
19 1    0.476768272418553    0.334776135568063    0.167361178422198    0.356046886304048  -0.0630296273822469    0.129406262805174 
20 1    0.485509456998329     0.51479544825122   0.0158983359500553     0.49721191122263   -0.514829052332635   -0.665028356724699 
21 1     0.31743234974067    0.648783609515363  -0.0203989054589897    0.218494796150464    0.272502239578807    0.300072326728364 
22 1    0.335127184165913     0.81236206107269    0.159906699586259 -0.00780144246570345    0.695189328616204   -0.182630115652037 
23 1    0.502777523671057    0.673628534157388    0.166755969434348   0.0793687045865091   0.0944351637028605    0.267617549941289 
24 1    0.497547783696064    0.842440616249519 -0.00268197638365564   0.0585151811852078   -0.169878556948889   -0.085698080432564 
25 1    0.667136468640251  0.00338162486309557  -0.0136779711360191    0.169637283770956   -0.167924118073676    0.277903563600748 
26 1    0.653529265100019    0.169674298300606    0.156186049020562    0.173757578550885    0.528198080809525    0.379610723092765 
27 1    0.824277696554873   0.0144361481462738    0.157252016210464    0.125217613981066   -0.542384861575999   -0.114845985020165 
28 1    0.822439359368332    0.178643816407316  0.00997941304865435   0.0418054659815429    0.153793120185844   -0.181932440216698 
29 1    0.656271501865376    0.350030659232289   0.0020609081055909   -0.564153527700328   -0.366949370857974    0.325993141953186 
30 1    0.641342869368032    0.499652713154774    0.184717025697523   0.0854360061133184   -0.375139981253163   -0.403163572488308 
31 1    0.826945353515612    0.322530699520598    0.191986906770808   -0.351231217984332      0.3512391721832    -1.02826843365731 
32 1    0.811668458516124    0.502579828934131   0.0193524353120438    0.373223719379681   0.0143811998487396   -0.108706935170005 
33 1    0.667759829136003    0.667270299019833  0.00172767089372883  -0.0179218534286548    0.223568611748991   -0.214846166869199 
34 1    0.675103239057535    0.832758551080019    0.147622470130045    0.419878058151462   -0.147479636134873   0.0256723620791547 
35 1    0.839862500568074    0.661419782543931    0.167289444124663    -0.14184765610572    0.599105363632297    -0.15499084702079 
36 1    0.844916597328961    0.851703446026704  -0.0303079050572137   -0.432545796072752    -1.07812508687752    0.669351910730437 
37 1   0.0108814742882259  -0.0050759649212182    0.334805423339276   -0.410695127191732   -0.188592838470582   -0.210533320171456 
38 1  0.00337023949487048    0.159677630622127    0.500703334797663   -0.301687213822119    0.362544915386887   -0.148080195712117 
39 1    0.165262985340746 -0.000227163628380822    0.493845549604089    0.656140788871204    0.219381486747533   0.0547311415331549 
40 1    0.159652148939927    0.156799820105562    0.321835981232653    0.367822515489037    0.370261785530281   0.0272532661373355 
41 1  0.00550153316248725    0.334820243172089    0.325914679668813 -0.00998542694676369   -0.713753804581608    0.671216228390474 
42 1 -0.00187091770510506    0.494663047289123    0.483137871654208   -0.203582731727898   0.0638419398399273    0.286799162887907 
43 1    0.164526887267925    0.324279789428601    0.492002904487663   -0.294090772482118    0.242452986757382    0.418130598169344 
44 1    0.161549987861122    0.506719021194954    0.339847542864277    0.502190146603848   -0.017609934161357   -0.206892230037856 
45 1 -0.000770903389593514    0.676926807086488    0.333372287747579    0.205663156857736  -0.0559927513417393   -0.108062489905132 
46 1   0.0278147095540362    0.834288231380469    0.507583341460418   -0.873637259878229   -0.160178546140943   -0.693179044638416 
47 1    0.181319410950891    0.664045479827678    0.508116685008417    0.148402959056752  -0.0725015873609307   -0.332241767206788 
48 1    0.170754698127439    0.823322550348166    0.329518665925207   0.0562242137098817    0.299675360733967    0.236075431631598 
49 1    0.344357245826131  -0.0246460755756743    0.333534325923438  -0.0083517823214454    0.026777235891706  -0.0408145021965864 
50 1    0.328171777298735     0.15801462738807    0.502201566780514   0.0462316397099217 -0.00591825154343483   -0.339697976075527 
51 1    0.504033208329702  -0.0108147682120148    0.501453444769481   -0.254652724656701     0.22651552350205   -0.245487389312721 
52 1    0.489561838500777    0.159500997223404    0.330005976871917    0.405419412522651    0.077831575953652    0.350558661862516 
53 1    0.323193176894961    0.330751091947491    0.341680979192461    0.129271610076866  -0.0166495395388755   -0.406274063964887 
54 1    0.329351637972991    0.497852866143489    0.515452746382834   0.0452719027941671   -0.226377849869349   0.0440873345082666 
55 1    0.493288864611372     0.31927962578402    0.502457794280872  -0.0499468928764542    0.212698536952598    0.108725488806461 
56 1    0.482941993017789    0.498154488076352    0.356207913092931   0.0612071276523396    -0.39880241195487   -0.878213383199038 
57 1    0.342614181420799    0.676499184052659    0.338553542564227   0.0607001503268849   -0.425923719544807   -0.141261458583717 
58 1    0.346776420926972    0.812222846714121     0.50998056749745  -0.0570136319165576    0.602896478798004   0.0255571469523351 
59 1    0.506231938119527    0.654778841574171    0.501309725817123   -0.126825766781188     0.62139782739691    0.320024080957503 
60 1    0.539545176686602    0.835668594557433    0.333402698394025   -0.594642690518266 -0.00830561217660916  -0.0452396390437163 
61 1     0.68030696470953   0.0146007936913293    0.331015651149414   -0.367609952305458     0.22400977013834    0.359412463881216 
62 1    0.661996780763388    0.164719833385675     0.51000426389453    0.270998061135567  -0.0351125121619407   -0.403856247902898 
63 1    0.849635906198955 -0.00574171485226316    0.496488808604113   -0.364030460750394   -0.114754164267787    0.292948387752966 
64 1    0.848720847955747    0.159466652663355    0.322544524715227  -0.0349189899960238    -0.24930056756042    0.847170792167726 
65 1    0.660211482748196    0.326494631865899    0.337583014955385   -0.366442614409288   -0.124071756984427 -0.00108519925185041 
66 1    0.653429655844093     0.49255594080762    0.501710179903284    0.553117170816434   -0.332819756382028   -0.294209212325958 
67 1    0.831883342969718    0.318712858439085    0.485731102798809   0.0916082818111727    0.191230489924129    0.281420840224987 
68 1    0.821176827614863    0.497990850424571    0.318015775118511   -0.146777424983668   0.0363034883447204     1.01331443839003 
69 1    0.668813511675694    0.659492264661253    0.331777129542161   -0.165229873697705    0.201349051664352   0.0213863890648153 
70 1     0.66524258594643    0.828338969907691    0.517404477184755    0.474743477206111    0.051217863534536   -0.315660873833325 
71 1    0.833871910521793    0.674044079681153    0.476381271659875    0.120369736988861  -0.0743105946332931    0.526114157971227 
72 1    0.820096184012073    0.846610765505943    0.320220425688262    0.242122762393572   -0.391167543834121    0.215803651720035 
73 1  0.00758825019215692    0.010662257179888    0.674559090152343   -0.486915481200504   -0.137838030536951   0.0126795839790319 
74 1   -0.012375617302439    0.189834998215019    0.849976172669926    0.438055549695806   -0.399561376497835   0.0527857434431254 
75 1    0.169433687578476   0.0168576171309951    0.839981766736514  0.00147813253887366  -0.0314814335947559   -0.309307448792895 
76 1    0.151493951650764    0.173382261221946    0.666657766608182    0.361552621225281   0.0466118658911197     0.17735910445327 
77 1  -0.0108233698400682    0.339573028502627    0.673039032516499    0.133694729249853   -0.107770791666889    -0.40342464028657 
78 1  0.00805547065260726    0.497510031482534    0.826674370996557   -0.542540273311517    0.280530198329403  -0.0134952807555541 
79 1    0.161088888371637    0.327171758098416     0.83802883357373    0.125088921132289    0.165771331942014    0.110199664166438 
80 1    0.176599022868913    0.502682524724264    0.680171284071207  -0.0938692522488706   -0.190858950300398   -0.278224114810443 
81 1   0.0197818201132804    0.659569539155882    0.644925876319121   -0.622005234422066   -0.105544096155632    0.628246630069973 
82 1   0.0203449903874571    0.849656379915359    0.832670310169533   -0.448049778000965   -0.159693827997918   -0.237777171124113 
83 1    0.163538916722359    0.677876647740163    0.829309602761441   -0.289627951432748   -0.491528461522867   -0.546808442595386 
84 1    0.172531093293742    0.849129002802215    0.662004269968406    0.447898098195186   -0.372210569302426    0.487657793505947 
85 1    0.329894353536702  0.00804805852840218    0.663479817911252   0.0941937538043654   -0.230519390939618     0.36718494690657 
86 1    0.333572266572446    0.176884880678244    0.836746784068964  -0.0711525777388551   -0.489949991781726   0.0585954670729127 
87 1    0.504523189084239    0.014057804377444    0.837532631248109   -0.408215539394448   -0.619319273222833   -0.469802586057136 
88 1    0.500005594144682    0.159978733862431    0.668324058666599   -0.270700334303179   0.0187927431808278   -0.197219314699205 
89 1    0.323358554486731    0.318504133857118    0.666810744618942    0.121465899551121    0.197467201834255   -0.399094968188095 
90 1    0.346432577479732      0.4765784569978    0.821586867588849   -0.119266000859794    0.405149905063161    0.517911039956545 
91 1    0.505897789844994    0.323770436594373    0.818445626150492    -0.68038471724879    0.429050834649539    0.997524209321214 
92 1    0.511434797405173    0.500927879885239     0.67358246289939   -0.376369990441796   0.0279722768053538  -0.0655071460772155 
93 1    0.352322839532803     0.66408752222992    0.693059897627563    -0.47430991381908   -0.179339532295564   -0.664273240828011 
94 1    0.325357905753094    0.828863631649256    0.839161470724207    0.560239388288158    0.611277222569862   -0.262086060203357 
95 1    0.510582521974811    0.675171865214338    0.840130610187202    0.221869389251097    -0.14387265185487    0.195515883117778 
96 1    0.496753347844219    0.838098400034255    0.675855800441468  -0.0345292006817606  -0.0151938800151615   0.0358727904342614 
97 1     0.66045911496235  0.00109818834312136    0.660395964243662    0.600688973487934    0.295937757194473    0.185748390659305 
98 1    0.663960278890272     0.18021376143713    0.843675658699681    0.235602495248468   -0.463552514924161   -0.036549557717516 
99 1    0.839049805569971   0.0188480312053798    0.843812715437366   -0.118434815297127    0.177382273588965   -0.850625197502651 
100 1    0.828470406199813    0.174299312143717    0.685481100328957  -0.0672026449619397  -0.0902102044676596   -0.618803490056014 
101 1    0.654805561116859    0.331129031912724    0.674392669831718    0.956520138028603   0.0866946588842001   -0.715745758299438 
102 1    0.673609738357641    0.504656334348283    0.832229360295173   -0.166126899585193    0.185095317803729   0.0573621985883605 
103 1    0.823215780560531    0.341365060861222    0.850035198200203    0.159358569571805     0.31072972340667   -0.529642722226642 
104 1    0.832304130135185    0.497516418069722    0.633726402275443  0.00689031302526351   0.0306531457719228    0.469972433023844 
105 1    0.671560688474415    0.660714805454973    0.658468202265794   0.0847448262279113    0.137327499609857    0.234348411752058 
106 1    0.675302789434454    0.845988379891423    0.809742507799342    0.203757979539328   -0.416768881557959    0.449498568507531 
107 1    0.842020785821319    0.658145334894698    0.807993224569373    0.180891783965547   0.0711655015666103    0.454165130988945 
108 1    0.864924350212391    0.825498735791825    0.663831269834077   -0.421449174385739    0.314061750165844   -0.149759026470937 
ITEM: TIMESTEP
200
ITEM: NUMBER OF ATOMS
108
ITEM: BOX BOUNDS pp pp pp
-5.9313206143292163e-03 1.2155931320614346e+01
-5.9313206143292163e-03 1.2155931320614336e+01
-5.9313206143292163e-03 1.2155931320614336e+01
ITEM: ATOMS id type xsu ysu zsu fx fy fz 
1 1  0.00493370310380215  0.00283187145078045 -0.00453200806958876  -0.0825926524511425   0.0329925053656818    0.333504755664787 
2 1 -0.00838034331729887    0.164054247108993    0.178476558638295    0.385194069909441    0.475936136917412   -0.678305880782807 
3 1     0.17173577982237  0.00381100248944222    0.173649637481276    -0.22108592213836   -0.215091740495809   -0.624380702427328 
4 1    0.158312643903059    0.172348436574794 -0.00224169207172054    0.123793207564713   -0.329613541834844    0.169663326395629 