LAMMPS (17 Nov 2016)
units metal
dimension 3
boundary p p p
atom_style atomic
read_data structure.inp
  orthogonal box = (0 0 0) to (12.15 12.15 12.15)
  1 by 1 by 1 MPI processor grid
  reading atoms ...
  108 atoms
include potential.inp
pair_style eam/alloy
pair_coeff * * Al.lammps.eam Al
fix 1 all npt temp 400 400 1.0 iso 0.0 0.0 1.0
variable  dumptime equal 100
dump 1 all custom ${dumptime} dump.out id type xsu ysu zsu fx fy fz
dump 1 all custom 100 dump.out id type xsu ysu zsu fx fy fz
dump_modify 1 sort id format line "%d %d %20.15g %20.15g %20.15g %20.15g %20.15g %20.15g"
thermo_style custom step temp pe etotal pxx pyy pzz vol
thermo_modify format  float %20.15g
thermo 100
velocity all create 800 44122 dist gaussian
run 10000
Neighbor list info ...
  1 neighbor list requests
  update every 1 steps, delay 10 steps, check yes
  max neighbors/atom: 2000, page size: 100000
  master list distance cutoff = 8.5
  ghost atom cutoff = 8.5
  binsize = 4.25 -> bins = 3 3 3
Memory usage per processor = 3.93753 Mbytes
Step Temp PotEng TotEng Pxx Pyy Pzz Volume 
       0                  800    -362.880858320022    -351.816189908022    -12507.5799985432    -11097.1179405484    -12231.7593145029          1793.613375 
     100     359.387777064125    -356.848686708708    -351.878053478032    -4633.32028603276    -6248.99562293044        -7161.3536266      1822.5398516956 
     200     402.768056254825     -357.48852841134    -351.917909674583     3023.94118551477     383.820690373921     1471.19133900888     1798.87208425994 
     300     409.467592948745    -357.573745518241    -351.910466591444     4813.08764010538     6532.90159711065      5055.3089326545      1792.4561055145 
     400     372.576212221977    -356.984872626806    -351.831832318762    -8792.94218972433    -10229.6475991582    -10713.5664835412     1830.68745457343 
     500     393.521316256663    -357.235532282182     -351.79280368539     14236.8162422664     13343.6836680064     13651.1366150488     1775.04521466857 
     600     353.545526685219    -356.692476932203    -351.802646905556    -7232.95567438589    -7428.98646703222    -10449.0843813634     1828.20422809303 
     700     416.868777496702    -357.611803734236     -351.84616024134     4469.30532196603     5513.53384358443     1040.27299751935     1791.17924674288 
     800     418.925312541465    -357.643360324353    -351.849273233522    -1666.37333624479     -1343.6507359824    -2745.87234467641     1806.03387336663 
     900     392.201229245371    -357.202966111613    -351.778495421139    -4578.20403673682    -5517.44818957181    -5408.44125057362     1816.36227100326 
    1000     406.736190520814    -357.334746550345    -351.709245201254     6675.81710869114      8086.0342325818     4967.37894985637     1787.05572394108 
    1100       361.6218607594    -356.648779714726    -351.647247239934    -5773.14243838503    -4933.75343232651    -6961.99155671458     1823.07828625556 
    1200      397.38980311416    -357.095819477109    -351.599586474899     5905.93456159501     5752.51220027451     4859.44699774077     1792.39419949621 
    1300     424.476839918166    -357.403321042243    -351.532451689408    -4799.61384133156    -801.005594476015    -2867.23770107627      1809.8176577271 
    1400     382.734456582786    -356.743317049006    -351.449779734086     46.5541232881441     121.962112733699     10.1841185667378      1809.6391883286 
    1500     407.769490428549    -356.989248171164    -351.349455421011     639.329195912954     3165.82646915963     3978.26264218563     1801.17461996129 
    1600     357.623025364529    -356.192475937771    -351.246250697578     655.881467315642     1379.91090317601     1543.32126098808     1811.94777390616 
    1700       378.3039894842     -356.36779957313    -351.135539319906     3195.25820675996     1212.09760102821     4041.28982276864     1806.13720090188 
    1800     465.678965628808    -357.449820179937     -351.00909100353     -2532.8067380624     1029.72763983244    -3037.37365470922     1808.39572843542 
    1900     411.619893902516    -356.583470630928     -350.89042358366       3812.368505538     -2192.0098625918    -1009.56834617031     1812.45990866131 
    2000     416.482782621958    -356.525546343252    -350.765241481978    -4524.14598839087    -85.4213384434608    -620.735702625412     1813.72497502775 
    2100     418.400073148537    -356.426968238656    -350.640145647474     5257.25717228149     5748.27982490629     2502.92979452246     1802.24379171812 
    2200      382.07589412562    -355.826318777357    -350.541889931459     -1939.1022074425    -5611.17450546525     -3612.3450950702     1825.82404890907 
    2300     399.652602100852    -355.986368977295    -350.458839574496     5108.78138878255     6167.52033696587     4199.09834647401     1801.81211776415 
    2400     461.953231872031    -356.770638684853    -350.381439519208    -437.820545235866     1338.99524691305    -3625.17383414541     1812.74145478052 
    2500     436.672423921745    -356.330837887358     -350.29129341816    -6510.67646267365    -7105.41773229766     -6955.3858445755     1827.61182102124 
    2600     490.405838976649     -356.98758286957    -350.204860375088     8724.91408825279     8980.32980460731     6627.78784179043     1788.47573163889 
    2700     429.484083772532    -356.120472319729     -350.18034860076    -7275.44186808188    -7069.83691205203    -9902.25803978818     1834.30027806455 
    2800     429.969377013721    -356.128287698467    -350.181451968504     5461.07195744595     4616.65259600914     6617.12493179284     1801.72954422671 
    2900      454.85035033997    -356.487807782836    -350.196847403344     3250.48567640786     1504.53356089595     1802.43915050267     1808.55326772614 
    3000     443.568727547059    -356.302472091432     -350.16754598113    -6961.53911296632    -10076.8495632591    -9467.74796109039     1834.76721168382 
    3100     468.900646592745    -356.640632941017    -350.155345225116     12866.6717752981     11152.7978720158     7720.23079953728     1787.30642030261 
    3200     427.054472451561    -356.101954950337    -350.195434785915    -7118.02934267019     -8202.1419233881    -12829.8815453679     1837.57853412466 
    3300     449.836318177057    -356.488914258577    -350.267302133196     6404.29078554249     5560.69689677699     4591.05893531625     1799.71934472528 
    3400     441.040546772042    -356.419038663624    -350.319079405774     3489.79457583794    -56.7665016162558     629.682868331658     1807.26194367264 
    3500     453.741200950514    -356.626494104445     -350.35087418772    -6863.94290254678    -8496.13938745476    -8413.52680233134     1828.42103263139 
    3600     471.487040732928    -356.911037161791     -350.38997745396     8868.02892783887     7731.52346281448      7019.9162898188     1788.85099356493 
    3700     402.631786954533    -356.041547954209    -350.472813935731    -6873.49915458933    -3035.07916758806    -6573.94707931414     1827.22419427989 
    3800     427.286313943106    -356.476889636699    -350.567162910741     2061.45960731847     2343.55964828363     1593.65823306721      1805.5250329604 
    3900     454.828783555041    -356.915641653257     -350.62497956042     1692.03485840843    -775.279677355479     1489.36121744574     1806.02701932538 
    4000     437.372516445705    -356.710306333566    -350.661078999824    -5753.74560149599    -3222.25154378279     -5170.6513638855     1822.24070239518 
    4100     400.394572995141    -356.255681098662    -350.717889618467     7283.63649107359     6226.48083996798     7696.31647316472      1797.5707187089 
    4200     422.139718579311    -356.619794768462    -350.781249756443    -3767.35924598325    -5312.26175561284    -3832.30799883827     1822.10447376781 
    4300     417.062990872044    -356.621053407856    -350.852723781711     4440.99148239171    -295.069296602531     2949.74390374811     1803.06385506379 
    4400     403.817188880894     -356.48024479111    -350.895115673569     2533.11035391622     2414.96335410825       2454.075223083     1802.71108863463 
    4500     409.103006696423    -356.590319134676    -350.932082740366    -6086.46056898898    -4200.13276322715    -4027.26524451222     1821.32458559567 
    4600     439.150299131753    -357.051009726263    -350.977194172609     6075.89170083655     4980.89698489412     6545.25638994993     1793.21429557741 
    4700     416.571752603896     -356.80478482606      -351.0432494356    -3827.27424759263    -5543.15915846094    -6934.87885360245     1822.37849711963 
    4800      427.26827104604    -356.993313050772    -351.083835873156      1491.6713946868    -1493.70078337557      317.34291852394     1808.45329252023 
    4900     432.126791242559    -357.095485577847    -351.118811006547      3619.7216625366     1320.49964193057     3152.31590598066     1800.22646139448 
    5000     413.195458625919    -356.849134779595    -351.134296355795    -7073.96267474181    -6422.14385988035    -5116.20331809599     1823.08018281695 
    5100      408.56931799993    -356.816623916216    -351.165768882483     1883.95837810642     5372.83321589974     6371.55810009329     1798.46836650361 
    5200     376.475355837364    -356.407116851805    -351.200148129768    -3124.25008045411     720.380454852387    -2840.38647679878     1815.25640695308 
    5300     422.441986006006    -357.079461709293    -351.236736086214    -216.405867194241    -107.593214022014     3702.07269967958     1803.44429741411 
    5400     404.678280426692    -356.870774250623    -351.273735517548    -625.706983209119    -1853.37952225343     1570.30170252426     1809.03336737169 
    5500     373.288430636449    -356.480236954486    -351.317346070701     391.071568821996     -2959.4998910876     3082.30953294354     1808.55701531542 
    5600     407.261142314205    -356.967315482665    -351.334553611666     1266.95320975064     554.879418042038     3227.14000114713     1801.48505084883 
    5700     400.811611945701    -356.909996692928    -351.366437215605    -1362.30635485539    -3697.79047143583    -2303.74514789727      1812.7494133619 
    5800     390.897576614604    -356.806512873263    -351.400072787894     3274.62115258414     3284.52836570348     2765.96227762675     1801.51483728178 
    5900      430.52448542061    -357.391065751975    -351.436552408942     1103.85835583036    -2682.54131331262    -1941.57528325081     1806.83370830641 
    6000     409.938758424332    -357.141278198566    -351.471482659576    -2338.28260821313    -202.384258224371    -2779.69557790351     1808.87341031347 
    6100     403.742749424691    -357.091813357079    -351.507713799412       -875.735909767     324.940466666188     2429.64519741589     1802.57535422784 
    6200     393.768289789361    -356.991664043276    -351.545519596177     34.2905303266561    -422.259027910206     581.379382451765      1805.5286134912 
    6300     410.211118112076    -357.254987399266    -351.581424898234    -2420.17002504746    -3149.90310983195    -577.604618596837     1809.76289288758 
    6400     436.930364859038    -357.658361519825    -351.615249511951     1070.55487037313     434.427389487663     113.780875649565     1800.42213356175 
    6500     386.750277569835    -357.005823674491    -351.656744200042     1596.47102061247    -2847.68479991757    -2195.06028415945     1809.19055900135 
    6600     386.614673476372    -357.045679970357     -351.69847601382     1290.77439380181    -2134.54140172572    -179.812115515844     1804.49551815667 
    6700     382.321826884037    -357.019692262437    -351.731861961009     2682.81935026685      2998.4255325282     4261.16570430282     1797.87155788559 
    6800     367.474867183599    -356.839731475253     -351.75724703134    -1067.32328313126    -4622.42167299171    -5180.30772554431     1815.81599926083 
    6900     386.827936566686    -357.143361858461      -351.7932082952     8378.44221461213     4580.34476442184     6118.28307506716     1790.44382773124 
    7000     394.829912155002    -357.308037435875    -351.847209864457    -3359.12881801068     -3961.4119092073    -5175.55634874681     1814.29273089652 
    7100      388.46471195635    -357.269329932611    -351.896538398161     2378.01463077452     251.351591908867     22.3068508671444     1802.44165721495 
    7200     403.739536735854    -357.500190218438    -351.916135094942     1700.29014211362     2472.66825169329     2941.67995481315     1797.28829683322 
    7300     381.426993477751    -357.210098611615    -351.934644603844    -5418.50177778957    -4049.18206648112    -4656.02465606029     1816.39461514124 
    7400     374.258392203012    -357.135862679343    -351.959556416675     7877.39016203724     7156.53053182945     8169.18398909533     1788.01810635539 
    7500     371.466156842823    -357.135905732102    -351.998218417419    -4708.09403704485    -4250.40074529423    -5421.42568731871     1814.95825066804 
    7600     425.227093927507    -357.928787681318    -352.047541688685     1551.96199735825    -141.832696104059     522.705252075972     1796.56896097084 
    7700     374.464376994155     -357.27988523845    -352.100730034017    -93.2140421140568     1041.47461890705     1742.04736167039     1801.24900567119 
    7800     364.150902896379    -357.158741736483    -352.122230495885    -2915.64518243441    -2352.23713046398    -3523.73556851891      1810.4832055265 
    7900     388.867825179076    -357.534393063528    -352.156026136401     4752.10133920559     4653.59942808762     4885.78682055765      1790.2883472615 
    8000     362.254940184047    -357.209275043659    -352.198986551477    -5208.61302869493    -5678.13314230645    -7465.65066447083      1818.3738965359 
    8100     364.300337453614    -357.301239262286    -352.262661216906     6091.09633965055      4431.1867187619     3007.22103960065     1792.92517915846 
    8200     373.959742663404    -357.489443477015    -352.317267787006    -1143.53326606906    -1164.13717655018    -3119.29923906297     1806.29866943381 
    8300       368.5602407225    -357.461240672219    -352.363744605417     1008.84173624902    -1331.34477953714    -2383.38939375908      1803.6497226096 
    8400     374.163481450838     -357.57927631667    -352.404282749004     5012.15753764017     4138.73437730388     4693.14141249539     1789.26802248313 
    8500     397.934410615045    -357.940142693713    -352.436377314738    -7409.94790792455    -9319.78602102886    -8101.80644549893     1817.26860166467 
    8600     410.609266742305    -358.156940593083    -352.477871363835     6260.75979955348     5711.34423658533      4334.2441176645     1783.15562254377 
    8700     381.666851365413    -357.823983875044    -352.545212432281    -5584.89022317131    -4845.32147318745    -3538.25997561263     1811.61992520792 
    8800     356.085892184795    -357.518880379552    -352.593914975532    -1045.09924049806    -2440.80893671792    -1111.87087937729     1804.27671326246 
    8900     357.738811440181    -357.553833322028    -352.606006663667     8991.75010254512     6384.67510038224     6987.64337144291     1783.52040702172 
    9000     337.471135423459    -357.285877812615    -352.618370047513    -8015.43955312599    -9493.02109665628    -6955.96616837324     1822.07307762295 
    9100     355.858838189427    -357.565736586206    -352.643911528649     10715.6085901141     6109.64539562854     11328.7474928284     1779.61402930972 
    9200     347.934300384424    -357.502580135438    -352.690358056794    -3517.13400793829    -6500.83074278105    -5268.44490488278     1813.66297574502 
    9300     366.030696763072    -357.763179820864    -352.700669460493      511.76786218164    -487.722616609239     2057.70220153431      1798.5945084191 
    9400     357.568180400952    -357.636324181924      -352.6908574934     6096.08124094912     2178.27264812371     3566.70660431692     1790.79676253769 
    9500     344.755552770286    -357.400374011485    -352.632116668237     -5011.4595016552    -6637.74658353344    -5444.92783181967     1816.19049305521 
    9600     387.270228489589    -357.944563688359    -352.588292858263     7551.58535995944     5739.79177187732       6657.093366581     1783.11393623377 
    9700     392.059707250606    -357.967740574165    -352.545227251123     -5844.3340069206     -6904.2354002086    -7646.25373099795     1814.65823322762 
    9800     383.075447711514    -357.796587417169    -352.498333910036     4872.42413278132     3121.25676312893     440.781937790381     1794.09753591341 
    9900     356.601738723983    -357.359050064905    -352.426950072251     1294.37895880557     2834.62063577189     1132.30274634182     1799.65866760481 
   10000     397.391993494052    -357.846015996164    -352.349752699169    -6875.67151311296    -7714.24002907407     -4552.8178662581     1813.24090614289 
Loop time of 2.67546 on 1 procs for 10000 steps with 108 atoms

Performance: 322.935 ns/day, 0.074 hours/ns, 3737.677 timesteps/s
99.7% CPU use with 1 MPI tasks x no OpenMP threads

MPI task timing breakdown:
Section |  min time  |  avg time  |  max time  |%varavg| %total
---------------------------------------------------------------
Pair    | 2.4936     | 2.4936     | 2.4936     |   0.0 | 93.20
Neigh   | 0          | 0          | 0          |   0.0 |  0.00
Comm    | 0.069478   | 0.069478   | 0.069478   |   0.0 |  2.60
Output  | 0.033427   | 0.033427   | 0.033427   |   0.0 |  1.25
Modify  | 0.061003   | 0.061003   | 0.061003   |   0.0 |  2.28
Other   |            | 0.01795    |            |       |  0.67

Nlocal:    108 ave 108 max 108 min
Histogram: 1 0 0 0 0 0 0 0 0 0
Nghost:    1580 ave 1580 max 1580 min
Histogram: 1 0 0 0 0 0 0 0 0 0
Neighs:    7560 ave 7560 max 7560 min
Histogram: 1 0 0 0 0 0 0 0 0 0

Total # of neighbors = 7560
Ave neighs/atom = 70
Neighbor list builds = 0
Dangerous builds = 0
Total wall time: 0:00:02
