Start File for LAMMPS
108 atoms
1 atom types
 
0. 12.15000000000000 xlo xhi
0. 12.14999999999999 ylo yhi
0. 12.14999999999999 zlo zhi
 
Masses 
 
1 26.981539
 
Atoms 
 
1 1 0.000000000000000 0.000000000000000 0.000000000000000
2 1 0.000000000000000 2.025000000000000 2.025000000000000
3 1 2.025000000000000 0.000000000000000 2.025000000000000
4 1 2.025000000000000 2.025000000000000 0.000000000000000
5 1 0.000000000000000 4.050000000000000 0.000000000000000
6 1 0.000000000000000 6.074999999999999 2.025000000000000
7 1 2.025000000000000 4.050000000000000 2.025000000000000
8 1 2.025000000000000 6.074999999999999 0.000000000000000
9 1 0.000000000000000 8.100000000000000 0.000000000000000
10 1 0.000000000000001 10.125000000000000 2.025000000000000
11 1 2.025000000000000 8.100000000000000 2.025000000000000
12 1 2.025000000000000 10.125000000000000 0.000000000000000
13 1 4.050000000000000 0.000000000000000 0.000000000000000
14 1 4.050000000000000 2.025000000000000 2.025000000000000
15 1 6.074999999999999 0.000000000000000 2.025000000000000
16 1 6.074999999999999 2.025000000000000 0.000000000000000
17 1 4.050000000000000 4.050000000000000 0.000000000000000
18 1 4.050000000000000 6.074999999999999 2.025000000000000
19 1 6.074999999999999 4.050000000000000 2.025000000000000
20 1 6.074999999999999 6.074999999999999 0.000000000000000
21 1 4.050000000000001 8.100000000000000 0.000000000000000
22 1 4.050000000000001 10.125000000000000 2.025000000000000
23 1 6.075000000000000 8.100000000000000 2.025000000000000
24 1 6.075000000000000 10.125000000000000 0.000000000000000
25 1 8.100000000000000 0.000000000000000 0.000000000000000
26 1 8.100000000000000 2.025000000000000 2.025000000000000
27 1 10.125000000000000 0.000000000000000 2.025000000000000
28 1 10.125000000000000 2.025000000000000 0.000000000000000
29 1 8.100000000000000 4.050000000000000 0.000000000000000
30 1 8.100000000000000 6.074999999999999 2.025000000000000
31 1 10.125000000000000 4.050000000000000 2.025000000000000
32 1 10.125000000000000 6.074999999999999 0.000000000000000
33 1 8.100000000000000 8.100000000000000 0.000000000000000
34 1 8.100000000000000 10.125000000000000 2.025000000000000
35 1 10.125000000000000 8.100000000000000 2.025000000000000
36 1 10.125000000000000 10.125000000000000 0.000000000000000
37 1 0.000000000000000 0.000000000000000 4.050000000000000
38 1 0.000000000000000 2.025000000000000 6.074999999999999
39 1 2.025000000000000 0.000000000000000 6.074999999999999
40 1 2.025000000000000 2.025000000000000 4.050000000000000
41 1 0.000000000000000 4.050000000000000 4.050000000000000
42 1 0.000000000000001 6.074999999999999 6.074999999999999
43 1 2.025000000000001 4.050000000000000 6.074999999999999
44 1 2.025000000000001 6.074999999999999 4.050000000000000
45 1 0.000000000000001 8.100000000000000 4.050000000000000
46 1 0.000000000000001 10.125000000000000 6.074999999999999
47 1 2.025000000000001 8.100000000000000 6.074999999999999
48 1 2.025000000000001 10.125000000000000 4.050000000000000
49 1 4.050000000000000 0.000000000000000 4.050000000000000
50 1 4.050000000000000 2.025000000000000 6.074999999999999
51 1 6.074999999999999 0.000000000000000 6.074999999999999
52 1 6.074999999999999 2.025000000000000 4.050000000000000
53 1 4.050000000000000 4.050000000000000 4.050000000000000
54 1 4.050000000000000 6.074999999999999 6.074999999999999
55 1 6.074999999999999 4.050000000000000 6.074999999999999
56 1 6.074999999999999 6.074999999999999 4.050000000000000
57 1 4.050000000000001 8.100000000000000 4.050000000000000
58 1 4.050000000000001 10.125000000000000 6.074999999999999
59 1 6.075000000000000 8.100000000000000 6.074999999999999
60 1 6.075000000000000 10.125000000000000 4.050000000000000
61 1 8.100000000000000 0.000000000000000 4.050000000000000
62 1 8.100000000000000 2.025000000000000 6.074999999999999
63 1 10.125000000000000 0.000000000000000 6.074999999999999
64 1 10.125000000000000 2.025000000000000 4.050000000000000
65 1 8.100000000000000 4.050000000000000 4.050000000000000
66 1 8.100000000000000 6.074999999999999 6.074999999999999
67 1 10.125000000000000 4.050000000000000 6.074999999999999
68 1 10.125000000000000 6.074999999999999 4.050000000000000
69 1 8.100000000000000 8.100000000000000 4.050000000000000
70 1 8.100000000000000 10.125000000000000 6.074999999999999
71 1 10.125000000000000 8.100000000000000 6.074999999999999
72 1 10.125000000000000 10.125000000000000 4.050000000000000
73 1 0.000000000000000 0.000000000000000 8.100000000000000
74 1 0.000000000000001 2.025000000000000 10.125000000000000
75 1 2.025000000000000 0.000000000000001 10.125000000000000
76 1 2.025000000000000 2.025000000000000 8.100000000000000
77 1 0.000000000000001 4.050000000000001 8.100000000000000
78 1 0.000000000000001 6.075000000000000 10.125000000000000
79 1 2.025000000000001 4.050000000000001 10.125000000000000
80 1 2.025000000000001 6.075000000000000 8.100000000000000
81 1 0.000000000000001 8.100000000000000 8.100000000000000
82 1 0.000000000000001 10.125000000000000 10.125000000000000
83 1 2.025000000000001 8.100000000000000 10.125000000000000
84 1 2.025000000000001 10.125000000000000 8.100000000000000
85 1 4.050000000000001 0.000000000000000 8.100000000000000
86 1 4.050000000000001 2.025000000000000 10.125000000000000
87 1 6.075000000000000 0.000000000000001 10.125000000000000
88 1 6.075000000000000 2.025000000000000 8.100000000000000
89 1 4.050000000000001 4.050000000000001 8.100000000000000
90 1 4.050000000000001 6.075000000000000 10.125000000000000
91 1 6.075000000000000 4.050000000000001 10.125000000000000
92 1 6.075000000000000 6.075000000000000 8.100000000000000
93 1 4.050000000000002 8.100000000000000 8.100000000000000
94 1 4.050000000000002 10.125000000000000 10.125000000000000
95 1 6.075000000000001 8.100000000000000 10.125000000000000
96 1 6.075000000000001 10.125000000000000 8.100000000000000
97 1 8.100000000000000 0.000000000000000 8.100000000000000
98 1 8.100000000000000 2.025000000000000 10.125000000000000
99 1 10.125000000000000 0.000000000000001 10.125000000000000
100 1 10.125000000000000 2.025000000000000 8.100000000000000
101 1 8.100000000000000 4.050000000000001 8.100000000000000
102 1 8.100000000000000 6.075000000000000 10.125000000000000
103 1 10.125000000000000 4.050000000000001 10.125000000000000
104 1 10.125000000000000 6.075000000000000 8.100000000000000
105 1 8.100000000000000 8.100000000000000 8.100000000000000
106 1 8.100000000000000 10.125000000000000 10.125000000000000
107 1 10.125000000000000 8.100000000000000 10.125000000000000
108 1 10.125000000000000 10.125000000000000 8.100000000000000
 
