ITEM: TIMESTEP
0
ITEM: NUMBER OF ATOMS
108
ITEM: BOX BOUNDS pp pp pp
0.0000000000000000e+00 1.2150000000000000e+01
0.0000000000000000e+00 1.2149999999999990e+01
0.0000000000000000e+00 1.2149999999999990e+01
ITEM: ATOMS id type xsu ysu zsu fx fy fz 
1 1                    0                    0                    0 -2.22044604925031e-16 2.34534613952064e-14  2.3557544803765e-14 
2 1                    0    0.166666666666629    0.166666666666629 -5.55111512312578e-17 -2.4980018054066e-16 -2.22044604925031e-16 
3 1    0.166666666666629                    0    0.166666666666629  1.2490009027033e-15 2.37206088105069e-14 -2.58473797920544e-16 
4 1    0.166666666666629    0.166666666666629                    0 1.33226762955019e-15 7.94503351997378e-16  2.4459601011273e-14 
5 1                    0    0.333333333333371                    0 -2.22044604925031e-16 7.14706072102445e-16 2.21628271290797e-14 
6 1                    0                  0.5    0.166666666666629 -4.71844785465692e-16 -4.75747913286639e-16 -1.38777878078145e-17 
7 1    0.166666666666629    0.333333333333371    0.166666666666629 1.38777878078145e-16  9.0205620750794e-17 -2.4980018054066e-16 
8 1    0.166666666666629                  0.5                    0 1.83186799063151e-15 1.22211268882566e-15 2.45088237899038e-14 
9 1                    0    0.666666666666629                    0 -5.55111512312578e-16 1.30798150088651e-15 2.33701946683595e-14 
10 1                    0    0.833333333333371    0.166666666666629 -5.96744875736022e-15 -2.49991000123018e-14 5.55111512312578e-16 
11 1    0.166666666666629    0.666666666666629    0.166666666666629 2.08166817117217e-15 6.34908792207511e-16 -1.01828268039839e-15 
12 1    0.166666666666629    0.833333333333371                    0 2.94209101525666e-15 -2.40502062709425e-14 2.32244778963775e-14 
13 1    0.333333333333371                    0                    0 -8.32667268468867e-16  2.3185880299037e-14 2.32561365998141e-14 
14 1    0.333333333333371    0.166666666666629    0.166666666666629 -1.3314002678122e-15 -1.72550775751068e-16 -1.3162214373974e-16 
15 1                  0.5                    0    0.166666666666629 1.98408997564847e-15 2.39116994434074e-14 -2.4980018054066e-16 
16 1                  0.5    0.166666666666629                    0 1.93985452701106e-15 9.15933995315754e-16  2.4615997174654e-14 
17 1    0.333333333333371    0.333333333333371                    0 -1.40512601554121e-16 4.46257614195034e-16  2.2921118128516e-14 
18 1    0.333333333333371                  0.5    0.166666666666629 -2.00360561475321e-16 3.39326240188652e-16 -8.92840489041813e-16 
19 1                  0.5    0.333333333333371    0.166666666666629 1.35986100698105e-15 5.71591385334358e-16 -2.8124204354274e-16 
20 1                  0.5                  0.5                    0 2.90739654573713e-15 2.73544208118093e-16 2.48216703267745e-14 
21 1    0.333333333333371    0.666666666666629                    0 -2.55611504185183e-15  2.0721271920543e-15 2.38162896522287e-14 
22 1    0.333333333333371    0.833333333333371    0.166666666666629 -3.07739944638286e-15 -2.47771096174854e-14 -6.01406945077709e-16 
23 1                  0.5    0.666666666666629    0.166666666666629 -1.33707082106225e-16 6.93889390390723e-17 -1.89084858881472e-16 
24 1                  0.5    0.833333333333371                    0 -5.68989300120393e-16 -2.45845011015433e-14 2.48065457064683e-14 
25 1    0.666666666666629                    0                    0 1.90125692967058e-15 2.43936815191859e-14 2.45185816094562e-14 
26 1    0.666666666666629    0.166666666666629    0.166666666666629 -1.04083408558608e-16 -1.04083408558608e-16 -1.70002900645727e-16 
27 1    0.833333333333371                    0    0.166666666666629 2.15105711021124e-16 2.24716079078036e-14 -2.4980018054066e-16 
28 1    0.833333333333371    0.166666666666629                    0 1.66533453693773e-16 8.74300631892311e-16 2.33459085396959e-14 
29 1    0.666666666666629    0.333333333333371                    0 9.57567358739198e-16 1.04343617080005e-15 2.35783614854768e-14 
30 1    0.666666666666629                  0.5    0.166666666666629 1.94289029309402e-16 -7.35522753814166e-16 -3.24393290007663e-16 
31 1    0.833333333333371    0.333333333333371    0.166666666666629 -1.2490009027033e-16 8.01659086335782e-16 -2.91433543964104e-16 
32 1    0.833333333333371                  0.5                    0 3.60822483003176e-16 6.66133814775094e-16 2.34950947586299e-14 
33 1    0.666666666666629    0.666666666666629                    0  1.6306400674182e-15 9.73179870022989e-16 2.46296039119187e-14 
34 1    0.666666666666629    0.833333333333371    0.166666666666629 7.04297731246584e-16 -2.34048891378791e-14 -3.36536354339501e-16 
35 1    0.833333333333371    0.666666666666629    0.166666666666629 2.65759636519647e-15 1.87350135405495e-15 8.60422844084496e-16 
36 1    0.833333333333371    0.833333333333371                    0 1.73472347597681e-15 -2.4161228573405e-14 2.41681674673089e-14 
37 1                    0                    0    0.333333333333371 -2.22044604925031e-16 2.31203944878189e-14 -1.31838984174237e-16 
38 1                    0    0.166666666666629                  0.5 -3.60822483003176e-16 6.38378239159465e-16 2.77555756156289e-16 
39 1    0.166666666666629                    0                  0.5 1.66533453693773e-15  2.4230617512444e-14 1.01763215909489e-15 
40 1    0.166666666666629    0.166666666666629    0.333333333333371 2.22044604925031e-16 -1.17961196366423e-16 1.21430643318376e-16 
41 1                    0    0.333333333333371    0.333333333333371 -2.77555756156289e-16 1.02695629777827e-15 8.11850586757146e-16 
42 1                    0                  0.5                  0.5 -4.82947015711943e-15 1.21560747579075e-15 -1.97324795392362e-17 
43 1    0.166666666666629    0.333333333333371                  0.5 -1.69309011255336e-15   6.956241138667e-16 4.71844785465692e-16 
44 1    0.166666666666629                  0.5    0.333333333333371 -1.60982338570648e-15 4.05493773215086e-17 7.04297731246584e-16 
45 1                    0    0.666666666666629    0.333333333333371 -5.52335954751015e-15 3.92047505570758e-16 1.09114106638941e-15 
46 1                    0    0.833333333333371                  0.5 -5.07927033766009e-15 -2.6624535909292e-14 1.02695629777827e-15 
47 1    0.166666666666629    0.666666666666629                  0.5 3.88578058618805e-16 1.01828268039839e-15 -1.38777878078145e-17 
48 1    0.166666666666629    0.833333333333371    0.333333333333371 -1.02695629777827e-15 -2.47666470665209e-14 -1.6826817716975e-16 
49 1    0.333333333333371                    0    0.333333333333371 -1.53523027623947e-16  2.4240429542105e-14 -4.05328982183706e-16 
50 1    0.333333333333371    0.166666666666629                  0.5 -1.38777878078145e-16 -3.64888241149997e-16 9.34528062573881e-16 
51 1                  0.5                    0                  0.5 2.81458883977237e-15 2.47179663889763e-14 4.82469966756049e-18 
52 1                  0.5    0.166666666666629    0.333333333333371 1.35934342799246e-15 -8.32667268468867e-17 3.57353036051222e-16 
53 1    0.333333333333371    0.333333333333371    0.333333333333371 -6.31439345255558e-16 -1.36663683841798e-16 -4.96564594998361e-17 
54 1    0.333333333333371                  0.5                  0.5 8.34401991944844e-16 1.33584571278994e-15 6.27210956782864e-17 
55 1                  0.5    0.333333333333371                  0.5 2.45723580372115e-15 9.95731275210687e-16 -2.02203705168547e-17 
56 1                  0.5                  0.5    0.333333333333371 2.39998992901391e-15 -3.47974687259223e-16 7.65013052905772e-16 
57 1    0.333333333333371    0.666666666666629    0.333333333333371 -1.37693675905659e-15  1.0544950329594e-15 6.63369099235256e-16 
58 1    0.333333333333371    0.833333333333371                  0.5 -1.77852524374522e-15 -2.54808110375371e-14 1.16589680618229e-15 
59 1                  0.5    0.666666666666629                  0.5  4.9591407369487e-16  2.4980018054066e-16 -6.95082012780457e-16 
60 1                  0.5    0.833333333333371    0.333333333333371 -6.07207426700507e-16 -2.51682897613181e-14 -1.03649727689614e-16 
61 1    0.666666666666629                    0    0.333333333333371 9.99200722162641e-16 2.47302178735254e-14 2.25514051876985e-16 
62 1    0.666666666666629    0.166666666666629                  0.5 2.15105711021124e-16 1.26634813746307e-16 -1.42247325030098e-16 
63 1    0.833333333333371                    0                  0.5  3.2612801348364e-16 2.32175390024736e-14 4.85722573273506e-16 
64 1    0.833333333333371    0.166666666666629    0.333333333333371 -1.35308431126191e-16 -1.6306400674182e-16 6.21031004399697e-16 
65 1    0.666666666666629    0.333333333333371    0.333333333333371 -1.68918698473242e-16 1.00397121172158e-15 8.27354677823688e-16 
66 1    0.666666666666629                  0.5                  0.5 3.33066907387547e-16 2.70616862252382e-16 -1.02175212735034e-15 
67 1    0.833333333333371    0.333333333333371                  0.5 1.79023462720806e-15  2.1315414711065e-15 1.81105130891979e-15 
68 1    0.833333333333371                  0.5    0.333333333333371 1.84574577843932e-15 1.40165656858926e-15 1.83186799063151e-15 
69 1    0.666666666666629    0.666666666666629    0.333333333333371 1.04603825601401e-15 -5.20417042793042e-18 1.16920362280837e-15 
70 1    0.666666666666629    0.833333333333371                  0.5 1.83186799063151e-15 -2.47839943012806e-14 1.87350135405495e-16 
71 1    0.833333333333371    0.666666666666629                  0.5 4.25354196309513e-15 7.32053306862213e-16   5.759281940243e-16 
72 1    0.833333333333371    0.833333333333371    0.333333333333371 3.39225175727265e-15 -2.61264534312522e-14 -8.43509290193722e-17 
73 1                    0                    0    0.666666666666629 -6.38378239159465e-16 2.24611995669477e-14 5.82867087928207e-16 
74 1                    0    0.166666666666629    0.833333333333371 -6.38378239159465e-15 3.11556336285435e-15 -2.54640059038636e-14 
75 1    0.166666666666629                    0    0.833333333333371 3.33066907387547e-15 1.84140896974938e-14 -2.50875709095766e-14 
76 1    0.166666666666629    0.166666666666629    0.666666666666629 1.72084568816899e-15 8.46545056276682e-16 1.06338549077378e-15 
77 1                    0    0.333333333333371    0.666666666666629 -5.4678483962789e-15 -1.95503335742586e-15 1.23512311489549e-15 
78 1                    0                  0.5    0.833333333333371 -4.49640324973188e-15 -1.93985452701106e-15 -2.64094301982709e-14 
79 1    0.166666666666629    0.333333333333371    0.833333333333371 -1.20736753927986e-15 -1.82666382020358e-15 -2.53738002831128e-14 
80 1    0.166666666666629                  0.5    0.666666666666629 -8.32667268468867e-17 -9.4542429440736e-16 6.71337985203024e-16 
81 1                    0    0.666666666666629    0.666666666666629 -5.4678483962789e-15 1.80411241501588e-15 1.52655665885959e-16 
82 1                    0    0.833333333333371    0.833333333333371 -5.21804821573824e-15 -2.39183672867682e-14 -2.65690247580608e-14 
83 1    0.166666666666629    0.666666666666629    0.833333333333371 1.01307850997046e-15 1.80584713849186e-15 -2.38385700068733e-14 
84 1    0.166666666666629    0.833333333333371    0.666666666666629 9.71445146547012e-16 -2.34916253116779e-14 2.05044314860459e-15 
85 1    0.333333333333371                    0    0.666666666666629 -2.68361721733612e-15 2.28908146777951e-14 1.25263297998113e-15 
86 1    0.333333333333371    0.166666666666629    0.833333333333371 -3.09691508548759e-15 9.44448512452123e-16 -2.53392684439191e-14 
87 1                  0.5                    0    0.833333333333371 -5.65953534037433e-16  2.0354648955917e-14 -2.56669685505528e-14 
88 1                  0.5    0.166666666666629    0.666666666666629 -9.64647374813482e-17 1.27675647831893e-15 3.79904441238921e-16 
89 1    0.333333333333371    0.333333333333371    0.666666666666629 -1.58423621443582e-15 -1.53658552895508e-15 1.75385964432118e-15 
90 1    0.333333333333371                  0.5    0.833333333333371 -1.71650887947905e-15 -1.04094250580333e-15 -2.51179827805148e-14 
91 1                  0.5    0.333333333333371    0.833333333333371 -7.52869988573934e-16 -1.60895602396849e-15 -2.57216665501547e-14 
92 1                  0.5                  0.5    0.666666666666629 3.20056481317721e-16 -2.00696664148792e-15 -8.32667268468867e-17 
93 1    0.333333333333371    0.666666666666629    0.666666666666629 -3.44342609981396e-15 2.36621703134099e-15 7.55472073787899e-16 
94 1    0.333333333333371    0.833333333333371    0.833333333333371 -4.80995451801469e-15 -2.28974825211559e-14 -2.55666798495979e-14 
95 1                  0.5    0.666666666666629    0.833333333333371  -3.216177324461e-15 1.13103970633688e-15 -2.40397979300866e-14 
96 1                  0.5    0.833333333333371    0.666666666666629 -2.93862156830471e-15 -2.3862856135537e-14 1.01307850997046e-15 
97 1    0.666666666666629                    0    0.666666666666629 1.79717352111197e-15 2.37934671964979e-14 2.48065457064683e-16 
98 1    0.666666666666629    0.166666666666629    0.833333333333371  1.1518563880486e-15 1.62023172656234e-15 -2.39218367337202e-14 
99 1    0.833333333333371                    0    0.833333333333371 2.09554595897998e-15 1.99493199737333e-14 -2.53408405370692e-14 
100 1    0.833333333333371    0.166666666666629    0.666666666666629  2.6853519408121e-15 3.03923552991137e-15  2.3037127760972e-15 
101 1    0.666666666666629    0.333333333333371    0.666666666666629 1.46063716677247e-15 -1.33158785237683e-15  9.5062846483529e-16 
102 1    0.666666666666629                  0.5    0.833333333333371 2.00880978518114e-15 -2.33320307518881e-15 -2.43763342844261e-14 
103 1    0.833333333333371    0.333333333333371    0.833333333333371 3.33674060604139e-15 -2.37418591730876e-15 -2.67160425726498e-14 
104 1    0.833333333333371                  0.5    0.666666666666629 3.51108031537706e-15 -9.60169443953163e-16 3.46944695195361e-16 
105 1    0.666666666666629    0.666666666666629    0.666666666666629 2.52922682797418e-15 8.06646416329215e-16 -4.54497550705923e-16 
106 1    0.666666666666629    0.833333333333371    0.833333333333371 2.92127433354494e-15 -2.28748226957509e-14 -2.47397588526432e-14 
107 1    0.833333333333371    0.666666666666629    0.833333333333371 3.42434414157822e-15 1.86656246015104e-15 -2.54692100742915e-14 
108 1    0.833333333333371    0.833333333333371    0.666666666666629 4.18415302405606e-15 -2.5132673719952e-14   1.346145417358e-15 
ITEM: TIMESTEP
100
ITEM: NUMBER OF ATOMS
108
ITEM: BOX BOUNDS pp pp pp
-1.4785954910788224e-01 1.2297859549107894e+01
-1.4785954910788224e-01 1.2297859549107883e+01
-1.4785954910788224e-01 1.2297859549107883e+01
ITEM: ATOMS id type xsu ysu zsu fx fy fz 
1 1   0.0135598756147601  0.00403320070824975   0.0154048509178892 -0.000604374632092008  -0.0929251385862594   -0.466260590182631 
2 1   0.0169846484395748     0.15904452969346    0.170475622853701     0.16786877601439    0.387585433348133  -0.0441173097418404 
3 1    0.181630003666555  -0.0181852693594351     0.16424504534973   -0.296393800826688    0.543225038828754    0.208882439794049 
4 1    0.171179535049419    0.168837212088079  -0.0190743299801852   -0.470611713141555  -0.0507600002338157   -0.278975564339645 
5 1   0.0029674977453169    0.336060161205751    -0.02931119716186   -0.484119355481439   -0.205027735209741    0.418552355367529 
6 1    0.019641740499651    0.508581439044633    0.121623956275698   -0.238862125431567   -0.100807751533976    0.317341559437092 
7 1    0.159663241717908    0.332813156688417    0.134569967180369   -0.113665149116911    0.106945357345427    0.472769814484162 
8 1    0.190985914841576    0.497124958603422  -0.0207982023824229   -0.931875882820828    0.723013837197136    0.585864340262286 
9 1  -0.0033142440573215    0.693749436057715 -0.00484880804543764    0.222189463017989   -0.791664186445317  -0.0227387464281082 
10 1 -0.00302751466125528    0.825864563627192    0.184045446621326    0.288172498502668    0.314769979719801  -0.0381940318744056 
11 1    0.156448189507273    0.662544270815488    0.186150698103347    0.416316398030911   0.0988567991458681  -0.0388315832499338 
12 1     0.15460463154011    0.832333823135514 0.000609221248282665   0.0705142552740554   -0.097772504660021    0.529679563485711 
13 1    0.304115681254757 0.000128149398733512  -0.0106086820522933     0.61362391853957    0.214485586381326   -0.043321177781472 
14 1    0.316491489862983    0.177036779412674     0.14782319686708   0.0152075883878625   -0.714187237381575    0.201298445335132 
15 1    0.499960381067467   0.0243634201098075    0.181307340143917   -0.467802739903457   -0.363980620317099   -0.291495099893339 
16 1    0.495394756182122    0.165387426355665  -0.0102712804120983   -0.367549103417775  -0.0595691797009957    0.168882871822889 
17 1    0.327234477937168    0.338025959124138  -0.0231759787866395    0.668032135326833   -0.698625618198007    0.206805470217223 
18 1    0.327490504251386    0.492290320994584     0.14536049993535 -0.00252322110631631    0.112994396593509    0.658678660087736 
19 1    0.476081020562106    0.320593758608084    0.150123491504587    0.675555547964968    0.154032240281359    0.219043379983276 
20 1      0.5030690101662    0.468931239519748 -0.00674249462377929   -0.251084042925049     0.85863411251202   -0.324944171390326 
21 1    0.353792457974009    0.652868125120222 -0.00819728510612094   -0.245547010438336   -0.245141833277457      0.3695322241607 
22 1    0.333884728286421    0.819323634582815    0.154092507042492  -0.0519216517697232   0.0329734671036793   -0.102742511200058 
23 1    0.489685783708865    0.648418687237267    0.167870897506191   0.0373506826008797    0.201791494994302    0.340848431130922 
24 1    0.501356249657988    0.863975289899031   0.0124920774723023    0.100344217574211    0.156832321321858    0.048615856406404 
25 1    0.664695156013863   0.0351338022454684  0.00753040008248718    0.176215521850859   -0.620841630878912    0.110449749822049 
26 1    0.648144466116264    0.178752227001723    0.175527890031958    0.481206153499919    0.232972579840783    0.042159959764962 
27 1    0.851373661219895  0.00559788797363581     0.16701500579336   -0.287192878615741   -0.197913381835396   0.0865619506439082 
28 1    0.834154507393578    0.193027137863737   0.0360224507130624    0.140428606893673  -0.0672116561094311   -0.188303406627701 
29 1    0.663457593720182      0.3238321710121 -0.00349206169931904    0.118500085680249    -0.55770570341165  -0.0150351944542734 
30 1    0.665959078726587    0.484170903497898    0.140228928059855   -0.327339415386162    0.409707538482574    0.885394976141938 
31 1    0.852848077406065     0.37252761615332    0.179070343370199  -0.0894420161086965   -0.437151963370715   -0.058748966076423 
32 1    0.822288782535679    0.477496316450811 -0.00850024257863424    0.433017639798283    0.538926278745732   -0.528268296176108 
33 1    0.656379487837853    0.694388273845561   0.0452759340024613    0.381677086981358   -0.869466198661717   -0.593484976447612 
34 1    0.684072481640897    0.862215013691525     0.15782318088543   -0.644368277977796    0.604647510753334    0.726463248531779 
35 1    0.836558487387265    0.642065557946466     0.16735970159823    0.231761762794571   -0.157701004705646   -0.313207435021929 
36 1    0.844465694210271    0.832012424761274   0.0211514852820756    0.253611244065105    0.345706734999372  -0.0305205474465577 
37 1  0.00805257927743241  0.00317013032383784    0.341739597223636    -0.74469871200674   -0.527101618281763   -0.714494132118806 
38 1  -0.0161487890280796    0.146938451675283     0.50523155165763   -0.735529423098707    0.924856687149355    0.238649231205392 
39 1    0.150658639394806   0.0280768151199027    0.496343894330835    0.834446948804628    -1.29374224016022     1.43759067432221 
40 1     0.16545111923881    0.148623111845041     0.33808632538728    0.183405812670741     1.23408016719867    -1.07237829363185 
41 1 -7.97520709170385e-05    0.337211513160923    0.330856134781811    0.301870548755288   -0.381385904086993  -0.0397019149699692 
42 1   0.0252053437304767    0.493240935534573    0.484714745356541   -0.487976642836599   -0.149571373805661    0.705712887743051 
43 1    0.167953619594641    0.299879924423635    0.507894244935869   0.0118556543493134    0.256290117520813   -0.492812663603518 
44 1     0.18773992290437    0.472965694527716    0.348077792427716    0.113316597159552    0.211086731341247   -0.694960143798883 
45 1 -0.00403461023250884       0.669320122361    0.346035328309085    0.242795499551484    0.244877915808311   -0.166870822595246 
46 1 -0.00561514342268765    0.839254392928524    0.495890602512191  -0.0310428996050751   -0.122275091337667   -0.244810296993294 
47 1    0.167720170357143    0.652836810125564     0.48064674911825    0.320356082244313    0.522053419272313   -0.377021110119769 
48 1    0.182447846546097    0.860396994204734    0.336536065389168   -0.792328690022034    -0.80818765769977    0.167090873306111 
49 1    0.330154019409292  0.00865860361545856    0.341875441999264     0.66780835092787    0.214718042758771   -0.383113119781076 
50 1    0.332254847974014    0.162833617722185    0.502459613658175 -0.00234715940674779    0.229553153740152    0.223092469145094 
51 1     0.47560823396384  0.00513696803534458    0.517835317633626   -0.355397264450533  -0.0983729477266817   -0.365685199414473 
52 1    0.500025682268756    0.180497652837403    0.353890368691509  -0.0653492848595029   0.0976889985124671  -0.0951788608438187 
53 1    0.336631818556839    0.321352022547103    0.314138577902213    -0.23389314923202   0.0310283224281131    0.456741614501041 
54 1    0.349851276779987    0.510948708591513    0.502412619912093   -0.683671599733718   -0.556072131228157    0.390009969938774 
55 1    0.514427475049501     0.34678374567568    0.501639006419623   -0.123999694960888    0.225714805772957   -0.314778474526456 
56 1    0.486762299532074    0.492804066782014    0.324919532582953    0.180601752066053    -0.55830336497008   -0.518733879911356 
57 1    0.329532842482308    0.688864341861631    0.333765929632818  0.00748884515952527   -0.438233588106471    -0.12809970196882 
58 1    0.325294805116641     0.84507019058583    0.497599619916627    0.417003945204611   -0.148936417102471    0.322681184112405 
59 1    0.502925067063984    0.643456449707287    0.467960125910849    0.487968311790937     1.21113596098601    0.712434152320523 
60 1    0.492083745985724    0.845481369369168    0.324213675117335   -0.237426095851447   -0.142503433360712   -0.396430420461085 
61 1    0.643674962548289   0.0209844777541548    0.355041386859511    0.420032652083214   -0.401926572037441   -0.461291915588012 
62 1    0.688079453861974    0.176711671373369    0.496187313265978  -0.0456149138867762    0.205330559880818  0.00435693692417502 
63 1    0.816613228805409  -0.0189907910542502    0.493331251424593   0.0101911867677346  -0.0818071776829634   0.0153008527726368 
64 1    0.840046345344831    0.162411263331251    0.312913750512166   -0.101728113016084    0.287879007449245    0.450451325934163 
65 1    0.686048245378174    0.335656654642889    0.329251089671288   -0.176400822016624    0.171907937020397  -0.0170479714261298 
66 1    0.671545603362006    0.498139811232363    0.483427620680686    0.230304283145382   0.0405427346281481    0.427775194592671 
67 1    0.839375291739088    0.339491792526132    0.521591223707674    0.225218544274808   0.0598164837248737  0.00846689774322108 
68 1    0.853808215820436    0.515482717419445    0.353395167729786   -0.511991454220312   -0.344809271633787  -0.0524156025866097 
69 1     0.67472841977667    0.654950168036066    0.322995038722752   -0.556222180270517  -0.0954028167491336   -0.284967304488853 
70 1    0.628280154338768    0.842639928758445    0.480790182570217     0.66158104240122   -0.452042398053722    0.251534324623585 
71 1    0.801747419466892    0.692330681677277    0.512105801647408    0.282212351499283  -0.0684945507889721  -0.0455996653591146 
72 1    0.820198710612772    0.807071528717302    0.317477120029707    0.320782550576313    0.768276309076799    0.489580866773771 
73 1  -0.0244209711838153  -0.0159907926315555    0.661171032957895    0.212948658688786    0.541283606198189    -1.08648833436322 
74 1  0.00447586130928812     0.14709213597348    0.802345156063325  -0.0575296964612908    0.446813671092884    0.754430823052765 
75 1    0.142744971524962  -0.0489658862442184     0.81857221258042    0.526789315213783    0.539915151089731  -0.0604982859339722 
76 1    0.177408234717973    0.152410890062583    0.691690210895672     0.16343143067103  -0.0993367071787888   -0.631277974777277 
77 1   0.0300234138804854    0.342742612631241      0.6603283282642   -0.489318304304316   0.0564711421267635    0.367559381250031 
78 1  0.00706101395462611    0.512527011300904    0.830441743974916 -0.00169790336813887  -0.0361028282852678    0.177220903252857 
79 1    0.164614339140144    0.342101205239715    0.840150422407191   0.0757583044975671   -0.395525444695446    -0.98917778082409 
80 1    0.158085287850554    0.557997828999987    0.668649308590261    0.609333097014931   -0.827868048481934    0.217246175389491 
81 1  -0.0121935500362724     0.67613465559316    0.650510652003959   -0.259915960434119    0.555518267526031   0.0202576838928763 
82 1  -0.0394576650024305    0.854958710142796    0.808513135982935   -0.253154561487839    -1.28486791392511     1.01977752665111 
83 1    0.171553782056662     0.67676582743843    0.851579968422584   -0.207046643416863  -0.0394092346017797   -0.424665682738176 
84 1    0.168369312451318    0.804126147678403    0.638540664334528   -0.071640352567228    0.402369285362823     0.64521083004638 
85 1    0.334121851712894  -0.0239199579768865    0.702317140856167   -0.325889215472483   -0.121843084202326   -0.601315882459843 
86 1    0.343257962414896     0.16440909204141    0.824743329113971    0.172484680251439    0.136200580829194    0.190881512818849 
87 1     0.50662525038922  0.00259676042276169    0.824884319944886    0.208494519925464   -0.145658597296326    0.346281145059667 
88 1    0.504267599521313    0.191704116501114    0.645003717444297   -0.501438768362114   -0.482309171927472    0.287172213002371 
89 1    0.315011218327527     0.34414320085466    0.670955811181216   -0.014175518991294   -0.246399725192754   -0.336113000035598 
90 1    0.330790815605951     0.49851010845191    0.825010587567704    0.333477844176047    0.383505635424661   -0.327593927316573 
91 1    0.516836524884525    0.314212647705858      0.8316601715959   -0.641390766269118   -0.730044121478802    0.466096206988334 
92 1    0.501717636777585    0.463686709119088    0.695557277463308   -0.248247571274888    0.909029959497151    -1.11673185688856 
93 1    0.366091031523183    0.677460424028027    0.679847005565193    0.074952730293755 -0.00995259121615507  -0.0545777560331948 
94 1    0.330706642758969    0.823268620867793    0.872540676996891    0.467561427055396     0.21831440805447    -0.81825562635382 
95 1    0.527693599232293    0.684434953668642    0.871749140985912  -0.0560446927091076   -0.398498998296465   -0.672174860850631 
96 1    0.540152443478178    0.823709743505447    0.674691461391262   -0.674924451055693   -0.178196714994022    0.483195535519548 
97 1     0.63805113185731   0.0121069036080144     0.64062262920686     1.04708794762606   0.0147088741344052    0.611166120189229 
98 1     0.67848531227196    0.156056667596658    0.828953060015806   -0.625197024161379    0.103958214452311    0.221522333938036 
99 1    0.842464591891144   0.0268439375322487    0.870846449944565   -0.230861506246481   -0.411052995926337    0.212102371076291 
100 1    0.821457885278164    0.143229212126585     0.67606618926402     0.26812781157431  -0.0318593795343415   -0.729555639027926 
101 1    0.672400503995618    0.316751972911447    0.676240910580873    0.377335681748037    0.358560837049217   -0.539480897539396 
102 1    0.661281960797965    0.474979572697066    0.831709271672139     0.77292227906288     0.73286995219208    0.330744413555184 
103 1    0.841608055808024    0.314445917777221    0.812997334197121    0.247890591409742    0.353244437710152    0.238083562828848 
104 1    0.841006693085092    0.528754136806469    0.674797070070667   -0.206717626263855   -0.977978626592834   -0.436628757927308 
105 1    0.650388639281573    0.633316363803033    0.672532168324892    -0.49186144422892   -0.104127996951179  -0.0239883969045949 
106 1    0.692409762951911    0.837249197170422    0.877097812383795   -0.828031390972595     0.49642134221431    0.508316233941683 
107 1    0.843455853832097     0.66907715599541    0.839780577681381   -0.279517179875594   -0.307958379893419     0.48762457400716 
108 1    0.768126355107825    0.815026053510223    0.695453666431717    0.651690575057917    0.602489033182347     -1.3900785368056 
ITEM: TIMESTEP
200
ITEM: NUMBER OF ATOMS
108
ITEM: BOX BOUNDS pp pp pp
-2.5290596573836677e-01 1.2402905965738368e+01
-2.5290596573836588e-01 1.2402905965738357e+01
-2.5290596573836588e-01 1.2402905965738357e+01
ITEM: ATOMS id type xsu ysu zsu fx fy fz 
1 1  0.00789639812353471 -0.000608037278198026  -0.0159420652176436  -0.0311117167983025    -0.28530108973037   0.0372006125178804 
2 1   0.0228751020028994    0.166930424640327    0.145254774996829   -0.208602129326075      0.1265349426082    0.252055827443102 
3 1    0.152708392821523  -0.0061026285210346    0.173435086388395    0.744107233317299    0.493508866318021   -0.407033268277933 
4 1      0.1573955762683     0.16418847481998   -0.032487926566148    0.141432872177899    0.121949229901932    0.324912573685224 