LAMMPS (17 Nov 2016)
units metal
dimension 3
boundary p p p
atom_style atomic
read_data structure.inp
  orthogonal box = (0 0 0) to (12.15 12.15 12.15)
  1 by 1 by 1 MPI processor grid
  reading atoms ...
  108 atoms
include potential.inp
pair_style eam/alloy
pair_coeff * * Al_lammps_2.eam Al
fix 1 all npt temp 800 800 1.0 iso 0.0 0.0 1.0
variable  dumptime equal 100
dump 1 all custom ${dumptime} dump.out id type xsu ysu zsu fx fy fz
dump 1 all custom 100 dump.out id type xsu ysu zsu fx fy fz
dump_modify 1 sort id format line "%d %d %20.15g %20.15g %20.15g %20.15g %20.15g %20.15g"
thermo_style custom step temp pe etotal pxx pyy pzz vol
thermo_modify format  float %20.15g
thermo 100
velocity all create 1600 92519 dist gaussian
run 10000
Neighbor list info ...
  1 neighbor list requests
  update every 1 steps, delay 10 steps, check yes
  max neighbors/atom: 2000, page size: 100000
  master list distance cutoff = 8.5
  ghost atom cutoff = 8.5
  binsize = 4.25 -> bins = 3 3 3
Memory usage per processor = 3.93753 Mbytes
Step Temp PotEng TotEng Pxx Pyy Pzz Volume 
       0                 1600    -362.821576160678    -340.692239336678     6450.57887743412     9709.99218394489     12373.6708337335          1793.613375 
     100     617.164283177133    -351.214735627723    -342.678837941367    -722.379930207888    -4559.38886194832    -4139.95617058968      1927.7911579657 
     200     570.705189541777     -349.32811315716    -341.434783553051    -30118.2998113469    -33651.2683464075    -32341.3343654885      2027.0760265064 
     300     699.892082253651    -352.291771044759    -342.611678776858     16892.1207580722     7725.42077258248     7128.14609981855     1877.80752058847 
     400     741.139657531207    -352.439142030408     -342.18856133345     25829.1412103822     17584.8397610775     21470.3477036621     1850.38541308683 
     500     665.059039218769    -351.490061140901    -342.291738961702    -10713.8929214166    -13686.6488916462    -19343.9026900713     1958.51752845889 
     600     603.499112795507     -350.53073162949    -342.183834666967     -8573.2819568527    -10652.0211327628    -10351.1873353008     1950.29730373378 
     700     728.851440411469    -352.015997362383    -341.935372975181     17632.7617493704     14761.7934249013      11104.473065933     1870.54626769134 
     800     731.473631869728    -352.015136056154    -341.898244570205     9800.62470253265     4131.47602047588     3769.91663107403     1896.55747314133 
     900     650.483452166286    -350.499410782661     -341.50268115052    -11531.2293630427    -9621.12986250125    -10891.9796767528     1956.12237655835 
    1000     706.609183339591    -351.197544734044    -341.424549345886    -3276.64467694369     2462.92179280011    -6566.37053689758     1924.91428427741 
    1100     767.294772891531    -351.693909163736    -341.081581368354     8684.62223238208     9510.25029692272     15121.1567042534     1885.52251495186 
    1200     799.237547174864    -352.042381423479    -340.988258371092      -3890.976954122    -3528.18064317659     -3709.4831196812     1923.25249710681 
    1300     696.003657256725    -350.361273783594    -340.734961682238     -6177.0875778854    -4079.11111292859    -3795.93666640438     1944.35015751316 
    1400     690.022954468819    -350.144219249694    -340.600625264861     3009.80659445578     2996.27963517143     4069.87763934201     1921.77171652495 
    1500     694.675471224236    -350.054683375256    -340.446741196448     8759.88127203826     4300.43253413113     8389.14971949197     1911.80033984736 
    1600      741.25969066751    -350.578660652108    -340.326419796586     -746.74169440434    -5508.11672857447    -3335.17263615975     1931.31497689002 
    1700     711.174821137298    -350.045486582099    -340.209344608539     3814.39428964633    -345.305380170039      1943.4209334693     1927.58830311678 
    1800     772.851008908576    -350.790909016062    -340.101733834246    -400.277305445815     1404.29552921125     4081.77428082036     1921.59287494096 
    1900     729.511669662072    -350.095035549604    -340.005279640235     2476.26446555778     4722.04340144178    -1047.80326831095     1925.30301462024 
    2000     762.237756173279    -350.443398341502    -339.901013312547    -3726.96016881008    -300.888598517334    -736.190461446113     1931.81066022226 
    2100     743.625033852014    -350.086956157037    -339.802000628993    -88.2517436250973     -3532.5628587373     3021.31006554962      1927.6890302137 
    2200     753.069155569972    -350.115225403579    -339.699649781471     12328.0112286776     3567.17867246752     5336.79572217983     1915.50256576944 
    2300     747.471329584488    -349.953377319571     -339.61522430791     1503.37771683893    -1120.54726575055    -2434.87718586817     1934.96853399534 
    2400     803.994064886548     -350.62194661422    -339.502036947738    -5492.37220598951    -5921.34691799073    -8295.68038077889     1948.55723069529 
    2500     773.506552976276    -350.115832700089    -339.417590796099     4275.81949499252     4602.66422598906     1668.51133858925     1923.74965409089 
    2600       771.5463581109    -349.965411850363    -339.294281079133     3682.51126061808     2755.92058439824     3368.66889503593     1921.82499059474 
    2700      859.11342502884    -351.051589012706    -339.169332542404    -5278.67064473079    -6416.03783960461    -5955.34569857302     1941.20868722638 
    2800     779.781340808653    -349.849725481889    -339.064698019499     4925.16246638216    -1174.45997736767     50.9823436769121     1936.24397953816 
    2900      850.64604418521    -350.718114999258    -338.952969480647     -1264.5922800792    -5862.60853342252    -6177.04447114464     1938.85437956961 
    3000     866.092856853884    -350.824184293143     -338.84539644928     2166.65364831359    -4438.94208342066     3693.76835342595     1924.94723087606 
    3100     791.327034360822    -349.691753635211    -338.747039584394     2017.56902886737     4791.76426650749     7682.06715748298     1924.39381470343 
    3200      766.65619192758    -349.241070377456     -338.63757469035    -5794.34860607461    -5404.58691280879    -2938.62797424671     1951.04420079748 
    3300     713.380681639095    -348.422511536495    -338.555860669166     1763.64652447756     307.093015489129     5888.46533288434     1937.16127289889 
    3400     834.998613433684    -349.973910137785    -338.425181660131     2999.38800879861      4215.4794345821     6833.76484620705      1922.0760956857 
    3500     820.357212364484    -349.671361301185    -338.325135633428    -2526.50599290425    -922.117481173184    -3974.12862737791     1942.69143896623 
    3600      776.44064846995     -348.96493404333    -338.226111147182    -1470.58191413091    -3268.04006259097      4238.5009223629     1950.98559491066 
    3700     902.538286906203    -350.633789463306    -338.150930871117     -9660.9293644462    -5872.41927673729    -6039.47756929835     1947.53223599843 
    3800     791.307378325498    -348.985217966439    -338.040775775013     4976.07189028634     9812.06186172706     15600.4230067763     1919.30608033463 
    3900      868.01678203216    -349.998168188149    -337.992770851602    -2215.19556516238    -6795.88380176722    -720.628674875854     1943.14721648869 
    4000     779.653986182329    -348.676294791306    -337.893028749805    -3125.21889925658    -2241.28445737049    -5183.03704294453     1956.68852120707 
    4100     756.443297972165    -348.294077745143    -337.831834914466     6521.79368732445     3313.58599015911     5799.65582417609     1939.63397242086 
    4200     762.028034854907    -348.309852960578    -337.770368552681     2184.84730078275     3966.08136328789     -2035.5120970238     1947.13841101989 
    4300     828.922063967969    -349.160969762506    -337.696285041011    -4511.72374260231    -2791.74205857049    -2536.50730589904     1954.95116801298 
    4400     882.030098461397    -349.833193039319     -337.63397982822     3244.43789982517    -4397.68574045805     2803.25022085639     1941.43211949436 
    4500     765.271561455137    -348.166640308894    -337.582295218101     1210.94356332636     4837.72078844382     1298.49001923489     1942.59879695829 
    4600     864.465291072679    -349.485341006125    -337.529063756872    -2611.80034513003    -8639.28306580131    -7408.85050775081     1954.83197730268 
    4700     848.459308087609    -349.237375992663    -337.502474861333    -213.649020419416     1659.55984910191     1677.40487984035     1938.99443525218 
    4800     841.520187559033    -349.096567901953    -337.457640605272     24.0301302475257       6963.985521784     8125.79213571907     1929.39342333951 
    4900     753.717451491164    -347.877935640966    -337.453393544607     1122.81118908753    -2470.42096563904     895.975433038493     1950.36343374588 
    5000     763.120358655598    -348.008019491058    -337.453427332345    -420.071093092645     1855.01094058892    -3685.82569566182     1950.65073247644 
    5100     900.340303674133    -349.882389429288    -337.429930781646     6135.13730186056    -1491.48057538744     3643.58666778961        1928.86686044 
    5200     856.816925168433    -349.327921210721    -337.477427252249     2738.28519942774     2745.27550459703     2751.26693727992     1936.89416056979 
    5300     832.362840780896     -349.02374864017    -337.511475100532    -8369.52153103625     -10339.336768304    -3969.74105397363     1966.31152729865 
    5400      905.40243950377    -350.171274686103    -337.648802470447    -5832.21821180426    -1490.25782911292    -5877.90708161143     1947.51490627162 
    5500     840.998526148198    -349.266713034097    -337.635000750584     8275.80400516396     13584.1343886781      12012.175577923     1907.62159093432 
    5600     833.230019894557    -349.371944075852     -337.84767672453     1305.75835899517    -3615.20380028559    -3887.20124829891      1941.5493554846 
    5700     768.025054514997    -348.528412929907    -337.905984729511    -9260.06826720684    -4922.29447817294    -6891.30839915934     1965.62830674646 
    5800     858.550950933767    -350.004543199865    -338.130066216253     1003.83448517501     524.059996070981      217.73568605221     1931.05937287903 
    5900     851.333075464103    -350.061061896542    -338.286414161319     12016.8431423676      7981.5720877256     6034.87327226737     1909.90689683426 
    6000     735.245747148295    -348.743065171443    -338.574002179531     1794.18001133341      2028.8973499095    -386.840942533406      1939.7592727485 
    6100     818.605467833043    -350.101238067395    -338.779240490117    -5617.47231812227    -7848.87361437083    -12192.5074986834      1959.6973912721 
    6200     788.882496542827    -350.005745006621    -339.094840956275     2277.14667756944     5445.72282399702     6484.04482578085     1919.47371272827 
    6300       829.5507521216    -350.797018759526    -339.323638755588     8976.38278443083      3650.5396637181     4058.98781951939     1916.05338170028 
    6400     763.166714884206    -350.061470584028    -339.506237279941    -16178.1896627494    -11222.7288992265    -9671.85896666989      1967.0277266307 
    6500     754.252264015996    -350.233690768609    -339.801751768187    -5579.41271887414     1608.37602154435    -1608.02793781217     1937.43612800393 
    6600     789.901706880066    -350.755888428715    -339.830887847839     8801.64607097754     12715.5185061386     9770.28093444907     1895.37782127376 
    6700     748.340547423134    -350.435316695117    -340.085141674502    -5669.75449512786     1074.41197491103     3347.73641856449     1928.68821114217 
    6800      750.42093690072    -350.488444349494    -340.109495804208    -10691.0643603304    -11253.7167467413     -6670.5822761366     1960.57212062618 
    6900     756.538924324435    -350.774868411266     -340.31130298824    -482.848968620438    -94.2095482863964     1575.68197300853     1923.05957500952 
    7000     764.866809524153    -350.867047579909    -340.288300546498     10392.2699353266      14743.612670832     13424.3794586583     1892.05928055778 
    7100     689.528478025699    -349.965011271081    -340.428256308599    -3234.65539829505    -1861.47978136428    -7209.84690718598     1943.59819651416 
    7200     717.059895116587    -350.347779800349    -340.430242336588    -4635.29113778075     -10399.963451462    -9379.99387886435     1953.39219913404 
    7300     694.920796552366    -350.054221533118    -340.442886300049     10758.5262494363     13221.6092524883     11862.3945549901     1893.97359443062 
    7400     729.509077462428     -350.60953628869    -340.519816231608     7058.17884062493     6289.81959232586     6042.23050373321     1906.73405057305 
    7500     743.165779072417    -350.700137190148     -340.42153353942    -16107.8973654544    -13942.9798693852    -10392.9479838969     1962.90645892267 
    7600     710.166859761281     -350.34516193937    -340.522960913808     231.575847056424    -43.4019971798846    -2034.21125169569     1929.15459113588 
    7700     772.243604564514    -351.049243084148    -340.368468811905     10911.4836186725     13498.7163897539     13463.5433844452     1886.50953473615 
    7800      679.44543967564    -349.874890590576    -340.477592473005     6418.77998810977      1635.4905027437    -1636.09347286548     1926.83859411679 
    7900     752.697605778485    -350.722104248993    -340.311667470937     -16062.589831643    -9013.48168974468    -19756.7326892127     1965.09056385397 
    8000     739.795487333261    -350.590558443939    -340.358568743893      6537.6003931643     12872.3300297817     5682.14277368104     1905.41922164659 
    8100     812.287771421431    -351.467369367993    -340.232750810617     7875.19229973295     10046.3973237538     6331.91357480546     1898.24971927544 
    8200     689.640397523082    -349.709604216558    -340.171301313917    -8045.90250595556    -8993.55407913677     1061.77658282408     1952.44014044645 
    8300     707.433177308509    -349.862323152458     -340.07793123925    -6413.34084624038    -7612.86135433169    -6608.44380208999     1953.39076135576 
    8400     807.393094456503    -351.117222351377    -339.950301266002     6799.60611491921     8508.06024647452     8655.73059728723     1899.88570586636 
    8500     812.360800245858    -351.057431017334      -339.8218024103     7456.37988667326     5338.40298822691     5307.80802296575     1907.42334767328 
    8600      783.53992013745    -350.551532260695    -339.714520505838    -12608.3795785574    -10469.8150366324    -9000.38251996791      1961.2653996005 
    8700     666.515217905701    -348.802749864578     -339.58428751748     -4554.9865753102      2158.2715353229     1035.24488490097     1947.53102358035 
    8800     759.760337268215    -349.866428911667     -339.35830865609     3727.82850209287     7765.45697745425     8660.75191320679     1913.44590725687 
    8900     854.602386642859    -350.989579776349    -339.169714735965     2781.91955371829     3014.97694780232    -225.339866104556      1923.0095751085 
    9000     786.215573898882    -349.860752558292    -338.986734276365    -8725.80488171434    -5131.51211276388    -4385.29677771083     1954.42164875221 
    9100     804.816312424264    -349.949529604045    -338.818247567116    -1605.72306684514    -3442.34890581096    -3192.23403731279     1942.14078037561 
    9200     831.078366481588    -350.079632475575    -338.585124288693     4261.62274977461     8544.78519863334     8843.92377297048     1911.33730542402 
    9300     798.250069020568    -349.472276227734    -338.431810823273     1903.00123406888     1936.13460678857     2361.05818516558     1928.98725484218 
    9400     830.882925404183    -349.742733467994    -338.250928394507    -7050.45136556242    -5110.79652203033    -8882.32839712871     1951.76835754575 
    9500     911.541302491206    -350.747582632431    -338.140204812546    -4871.67414757682    -585.326342570728    -4045.50691900886     1935.91356567942 
    9600     816.327269485923    -349.295238003248    -338.004749812579     5236.72852139004     6748.29552710381     4855.68673995037     1920.96682730463 
    9700     798.931830185101    -348.978588471338     -337.92869374035    -1723.08135992961     1522.35814641447     -424.36905982489     1936.22399938955 
    9800     848.299050097422     -349.58878056222    -337.856095932792    -432.685079541553    -1999.42931136721    -2649.43512807452     1943.25814271523 
    9900      787.21396792033      -348.7039350957    -337.816108190283     152.955019851012     3037.97186016793     3144.36116632907      1934.2935002855 
   10000     868.555984475598    -349.811056709396    -337.798201752545      8020.1952126215    -924.329977826131     5941.25968414631     1930.54585473744 
Loop time of 2.70653 on 1 procs for 10000 steps with 108 atoms

Performance: 319.228 ns/day, 0.075 hours/ns, 3694.766 timesteps/s
99.9% CPU use with 1 MPI tasks x no OpenMP threads

MPI task timing breakdown:
Section |  min time  |  avg time  |  max time  |%varavg| %total
---------------------------------------------------------------
Pair    | 2.4796     | 2.4796     | 2.4796     |   0.0 | 91.62
Neigh   | 0.03965    | 0.03965    | 0.03965    |   0.0 |  1.46
Comm    | 0.071167   | 0.071167   | 0.071167   |   0.0 |  2.63
Output  | 0.034408   | 0.034408   | 0.034408   |   0.0 |  1.27
Modify  | 0.063462   | 0.063462   | 0.063462   |   0.0 |  2.34
Other   |            | 0.01824    |            |       |  0.67

Nlocal:    108 ave 108 max 108 min
Histogram: 1 0 0 0 0 0 0 0 0 0
Nghost:    1484 ave 1484 max 1484 min
Histogram: 1 0 0 0 0 0 0 0 0 0
Neighs:    7739 ave 7739 max 7739 min
Histogram: 1 0 0 0 0 0 0 0 0 0

Total # of neighbors = 7739
Ave neighs/atom = 71.6574
Neighbor list builds = 133
Dangerous builds = 0
Total wall time: 0:00:02
