 vasp.5.3.5 31Mar14 (build Feb 06 2017 10:50:37) complex                        
  
 executed on             LinuxIFC date 2017.03.05  11:30:38
 running on    2 total cores
 distrk:  each k-point on    2 cores,    1 groups
 distr:  one band on NCORES_PER_BAND=   1 cores,    2 groups


--------------------------------------------------------------------------------------------------------


 INCAR:
 POTCAR:   PAW Fe 03Mar1998                       
 POTCAR:   PAW Fe 03Mar1998                       
   VRHFIN =Fe:  d7 s1                                                           
   LEXCH  = CA                                                                  
   EATOM  =   597.3650 eV,   43.9051 Ry                                         
                                                                                
   TITEL  = PAW Fe 03Mar1998                                                    
   LULTRA =        F    use ultrasoft PP ?                                      
   IUNSCR =        1    unscreen: 0-lin 1-nonlin 2-no                           
   RPACOR =    2.000    partial core radius                                     
   POMASS =   55.847; ZVAL   =    8.000    mass and valenz                      
   RCORE  =    2.300    outmost cutoff radius                                   
   RWIGS  =    2.460; RWIGS  =    1.302    wigner-seitz radius (au A)           
   ENMAX  =  267.969; ENMIN  =  200.977 eV                                      
   RCLOC  =    1.701    cutoff for local pot                                    
   LCOR   =        T    correct aug charges                                     
   LPAW   =        T    paw PP                                                  
   EAUG   =  511.368                                                            
   DEXC   =    -.018                                                            
   RMAX   =    2.817    core radius for proj-oper                               
   RAUG   =    1.300    factor for augmentation sphere                          
   RDEP   =    2.442    core radius for depl-charge                             
   QCUT   =   -4.438; QGAM   =    8.876    optimization parameters              
                                                                                
   Description                                                                  
     l     E      TYP  RCUT    TYP  RCUT                                        
     2   .000     23  2.300                                                     
     2   .000     23  2.300                                                     
     0   .000     23  2.300                                                     
     0   .000     23  2.300                                                     
     1  -.200     23  2.300                                                     
     1   .000     23  2.300                                                     
     3   .000      7   .000                                                     
  local pseudopotential read in
  partial core-charges read in
  atomic valenz-charges read in
  non local Contribution for L=           2  read in
    real space projection operators read in
  non local Contribution for L=           2  read in
    real space projection operators read in
  non local Contribution for L=           0  read in
    real space projection operators read in
  non local Contribution for L=           0  read in
    real space projection operators read in
  non local Contribution for L=           1  read in
    real space projection operators read in
  non local Contribution for L=           1  read in
    real space projection operators read in
    PAW grid and wavefunctions read in
 
   number of l-projection  operators is LMAX  =           6
   number of lm-projection operators is LMMAX =          18
 
 PAW Fe 03Mar1998                       :
 energy of atom  1       EATOM= -597.3650
 kinetic energy error for atom=    0.0664 (will be added to EATOM!!)
 
 
 POSCAR: Poscar file generated with pyCMW        
  positions in cartesian coordinates
  No initial velocities read in
 exchange correlation table for  LEXCH =        2
   RHO(1)=    0.500       N(1)  =     2000
   RHO(2)=  100.500       N(2)  =     4000
 


--------------------------------------------------------------------------------------------------------


 ion  position               nearest neighbor table
   1  0.000  0.000  0.000-   2 2.42   2 2.42   2 2.42   2 2.42   2 2.42   2 2.42   2 2.42   2 2.42

   2  0.500  0.500  0.500-   1 2.42   1 2.42   1 2.42   1 2.42   1 2.42   1 2.42   1 2.42   1 2.42

 
  LATTYP: Found a simple cubic cell.
 ALAT       =     2.8000000000
  
  Lattice vectors:
  
 A1 = (   2.8000000000,   0.0000000000,   0.0000000000)
 A2 = (   0.0000000000,   2.8000000000,   0.0000000000)
 A3 = (   0.0000000000,   0.0000000000,   2.8000000000)


Analysis of symmetry for initial positions (statically):
=====================================================================
 Subroutine PRICEL returns following result:
 
  LATTYP: Found a body centered cubic cell.
 ALAT       =     2.8000000000
  
  Lattice vectors:
  
 A1 = (   1.4000000000,   1.4000000000,   1.4000000000)
 A2 = (   1.4000000000,  -1.4000000000,  -1.4000000000)
 A3 = (  -1.4000000000,   1.4000000000,  -1.4000000000)
 
   2 primitive cells build up your supercell.
 

 Routine SETGRP: Setting up the symmetry group for a 
 simple cubic supercell.


 Subroutine GETGRP returns: Found 48 space group operations
 (whereof 48 operations were pure point group operations)
 out of a pool of 48 trial point group operations.


The static configuration has the point symmetry O_h .


Analysis of symmetry for dynamics (positions and initial velocities):
=====================================================================
 Subroutine PRICEL returns following result:
 
  LATTYP: Found a body centered cubic cell.
 ALAT       =     2.8000000000
  
  Lattice vectors:
  
 A1 = (   1.4000000000,   1.4000000000,   1.4000000000)
 A2 = (   1.4000000000,  -1.4000000000,  -1.4000000000)
 A3 = (  -1.4000000000,   1.4000000000,  -1.4000000000)
 
   2 primitive cells build up your supercell.
 

 Routine SETGRP: Setting up the symmetry group for a 
 simple cubic supercell.


 Subroutine GETGRP returns: Found 48 space group operations
 (whereof 48 operations were pure point group operations)
 out of a pool of 48 trial point group operations.


The dynamic configuration has the point symmetry O_h .


Analysis of structural, dynamic, and magnetic symmetry:
=====================================================================
 Subroutine PRICEL returns following result:
 
  LATTYP: Found a body centered cubic cell.
 ALAT       =     2.8000000000
  
  Lattice vectors:
  
 A1 = (   1.4000000000,   1.4000000000,   1.4000000000)
 A2 = (   1.4000000000,  -1.4000000000,  -1.4000000000)
 A3 = (  -1.4000000000,   1.4000000000,  -1.4000000000)
 
   2 primitive cells build up your supercell.
 

 Routine SETGRP: Setting up the symmetry group for a 
 simple cubic supercell.


 Subroutine GETGRP returns: Found  8 space group operations
 (whereof  8 operations were pure point group operations)
 out of a pool of 48 trial point group operations.


The (compounded) configuration has the point symmetry C_4h.
 
 
 KPOINTS: Kpoints file generated with pyCMW       

Automatic generation of k-mesh.
Space group operators:
 irot       det(A)        alpha          n_x          n_y          n_z        tau_x        tau_y        tau_z
    1     1.000000     0.000000     1.000000     0.000000     0.000000     0.000000     0.000000     0.000000
    2    -1.000000     0.000000     1.000000     0.000000     0.000000     0.000000     0.000000     0.000000
    3     1.000000    90.000000     0.000000     1.000000     0.000000     0.000000     0.000000     0.000000
    4    -1.000000    90.000000     0.000000     1.000000     0.000000     0.000000     0.000000     0.000000
    5     1.000000    90.000000     0.000000    -1.000000     0.000000     0.000000     0.000000     0.000000
    6    -1.000000    90.000000     0.000000    -1.000000     0.000000     0.000000     0.000000     0.000000
    7     1.000000   180.000000     0.000000     1.000000     0.000000     0.000000     0.000000     0.000000
    8    -1.000000   180.000000     0.000000     1.000000     0.000000     0.000000     0.000000     0.000000
 
 Subroutine IBZKPT returns following result:
 ===========================================
 
 Found      8 irreducible k-points:
 
 Following reciprocal coordinates:
            Coordinates               Weight
  0.125000  0.125000  0.125000      8.000000
  0.375000  0.125000  0.125000      8.000000
 -0.375000  0.125000  0.125000      8.000000
  0.125000  0.375000  0.125000      8.000000
  0.375000  0.375000  0.125000      8.000000
 -0.375000  0.375000  0.125000      8.000000
  0.375000  0.125000  0.375000      8.000000
  0.375000  0.375000  0.375000      8.000000
 
 Following cartesian coordinates:
            Coordinates               Weight
  0.044643  0.044643  0.044643      8.000000
  0.133929  0.044643  0.044643      8.000000
 -0.133929  0.044643  0.044643      8.000000
  0.044643  0.133929  0.044643      8.000000
  0.133929  0.133929  0.044643      8.000000
 -0.133929  0.133929  0.044643      8.000000
  0.133929  0.044643  0.133929      8.000000
  0.133929  0.133929  0.133929      8.000000
 


--------------------------------------------------------------------------------------------------------




 Dimension of arrays:
   k-points           NKPTS =      8   k-points in BZ     NKDIM =      8   number of bands    NBANDS=     28
   number of dos      NEDOS =    301   number of ions     NIONS =      2
   non local maximal  LDIM  =      6   non local SUM 2l+1 LMDIM =     18
   total plane-waves  NPLWV =   2744
   max r-space proj   IRMAX =      1   max aug-charges    IRDMAX=   4652
   dimension x,y,z NGX =    14 NGY =   14 NGZ =   14
   dimension x,y,z NGXF=    28 NGYF=   28 NGZF=   28
   support grid    NGXF=    28 NGYF=   28 NGZF=   28
   ions per type =               2
 NGX,Y,Z   is equivalent  to a cutoff of   8.31,  8.31,  8.31 a.u.
 NGXF,Y,Z  is equivalent  to a cutoff of  16.62, 16.62, 16.62 a.u.


 I would recommend the setting:
   dimension x,y,z NGX =    14 NGY =   14 NGZ =   14
 SYSTEM =  ToDo                                    
 POSCAR =  Poscar file generated with pyCMW        

 Startparameter for this run:
   NWRITE =      2    write-flag & timer
   PREC   = accura    normal or accurate (medium, high low for compatibility)
   ISTART =      0    job   : 0-new  1-cont  2-samecut
   ICHARG =      2    charge: 1-file 2-atom 10-const
   ISPIN  =      1    spin polarized calculation?
   LNONCOLLINEAR =      T non collinear calculations
   LSORBIT =      F    spin-orbit coupling
   INIWAV =      1    electr: 0-lowe 1-rand  2-diag
   LASPH  =      F    aspherical Exc in radial PAW
   METAGGA=      F    non-selfconsistent MetaGGA calc.

 Electronic Relaxation 1
   ENCUT  =  250.0 eV  18.37 Ry    4.29 a.u.   3.61  3.61  3.61*2*pi/ulx,y,z
   ENINI  =  250.0     initial cutoff
   ENAUG  =  511.4 eV  augmentation charge cutoff
   NELM   =     60;   NELMIN=  2; NELMDL= -5     # of ELM steps 
   EDIFF  = 0.1E-03   stopping-criterion for ELM
   LREAL  =      F    real-space projection
   NLSPLINE    = F    spline interpolate recip. space projectors
   LCOMPAT=      F    compatible to vasp.4.4
   GGA_COMPAT  = T    GGA compatible to vasp.4.4-vasp.4.6
   LMAXPAW     = -100 max onsite density
   LMAXMIX     =    2 max onsite mixed and CHGCAR
   VOSKOWN=      0    Vosko Wilk Nusair interpolation
   ROPT   =    0.00000
 Ionic relaxation
   EDIFFG = 0.1E-02   stopping-criterion for IOM
   NSW    =      0    number of steps for IOM
   NBLOCK =      1;   KBLOCK =      1    inner block; outer block 
   IBRION =     -1    ionic relax: 0-MD 1-quasi-New 2-CG
   NFREE  =      0    steps in history (QN), initial steepest desc. (CG)
   ISIF   =      2    stress and relaxation
   IWAVPR =     10    prediction:  0-non 1-charg 2-wave 3-comb
   ISYM   =      2    0-nonsym 1-usesym 2-fastsym
   LCORR  =      T    Harris-Foulkes like correction to forces

   POTIM  = 0.5000    time-step for ionic-motion
   TEIN   =    0.0    initial temperature
   TEBEG  =    0.0;   TEEND  =   0.0 temperature during run
   SMASS  =  -3.00    Nose mass-parameter (am)
   estimated Nose-frequenzy (Omega)   =  0.10E-29 period in steps =****** mass=  -0.179E-27a.u.
   SCALEE = 1.0000    scale energy and forces
   NPACO  =    256;   APACO  = 16.0  distance and # of slots for P.C.
   PSTRESS=    0.0 pullay stress

  Mass of Ions in am
   POMASS =  55.85
  Ionic Valenz
   ZVAL   =   8.00
  Atomic Wigner-Seitz radii
   RWIGS  =   1.30
  virtual crystal weights 
   VCA    =   1.00
   NELECT =      16.0000    total number of electrons
   NUPDOWN=      -1.0000    fix difference up-down

 DOS related values:
   EMIN   =  10.00;   EMAX   =-10.00  energy-range for DOS
   EFERMI =   0.00
   ISMEAR =     1;   SIGMA  =   0.20  broadening in eV -4-tet -1-fermi 0-gaus

 Electronic relaxation 2 (details)
   IALGO  =     68    algorithm
   LDIAG  =      T    sub-space diagonalisation (order eigenvalues)
   LSUBROT=      F    optimize rotation matrix (better conditioning)
   TURBO    =      0    0=normal 1=particle mesh
   IRESTART =      0    0=no restart 2=restart with 2 vectors
   NREBOOT  =      0    no. of reboots
   NMIN     =      0    reboot dimension
   EREF     =   0.00    reference energy to select bands
   IMIX   =      4    mixing-type and parameters
     AMIX     =   0.40;   BMIX     =  1.00
     AMIX_MAG =   1.60;   BMIX_MAG =  1.00
     AMIN     =   0.10
     WC   =   100.;   INIMIX=   1;  MIXPRE=   1;  MAXMIX= -45

 Intra band minimization:
   WEIMIN = 0.0000     energy-eigenvalue tresh-hold
   EBREAK =  0.89E-06  absolut break condition
   DEPER  =   0.30     relativ break condition  

   TIME   =   0.40     timestep for ELM

  volume/ion in A,a.u.               =      10.98        74.07
  Fermi-wavevector in a.u.,A,eV,Ry     =   1.473296  2.784126 29.532837  2.170602
  Thomas-Fermi vector in A             =   2.588207
 
 Write flags
   LWAVE  =      T    write WAVECAR
   LCHARG =      T    write CHGCAR
   LVTOT  =      F    write LOCPOT, total local potential
   LVHAR  =      F    write LOCPOT, Hartree potential only
   LELF   =      F    write electronic localiz. function (ELF)
   LORBIT =      0    0 simple, 1 ext, 2 COOP (PROOUT)


 Dipole corrections
   LMONO  =      F    monopole corrections only (constant potential shift)
   LDIPOL =      F    correct potential (dipole corrections)
   IDIPOL =      0    1-x, 2-y, 3-z, 4-all directions 
   EPSILON=  1.0000000 bulk dielectric constant

 Exchange correlation treatment:
   GGA     =    --    GGA type
   LEXCH   =     2    internal setting for exchange type
   VOSKOWN=      0    Vosko Wilk Nusair interpolation
   LHFCALC =     F    Hartree Fock is set to
   LHFONE  =     F    Hartree Fock one center treatment
   AEXX    =    0.0000 exact exchange contribution

 Linear response parameters
   LEPSILON=     F    determine dielectric tensor
   LRPA    =     F    only Hartree local field effects (RPA)
   LNABLA  =     F    use nabla operator in PAW spheres
   LVEL    =     F    velocity operator in full k-point grid
   LINTERFAST=   F  fast interpolation
   KINTER  =     0    interpolate to denser k-point grid
   CSHIFT  =0.1000    complex shift for real part using Kramers Kronig
   OMEGAMAX=  -1.0    maximum frequency
   DEG_THRESHOLD= 0.2000000E-02 threshold for treating states as degnerate
   RTIME   =    0.100 relaxation time in fs

 Orbital magnetization related:
   ORBITALMAG=     F  switch on orbital magnetization
   LCHIMAG   =     F  perturbation theory with respect to B field
   DQ        =  0.001000  dq finite difference perturbation B field



--------------------------------------------------------------------------------------------------------


 Static calculation
 charge density and potential will be updated during run
 non collinear spin polarized calculation
 RMM-DIIS sequential band-by-band and
  variant of blocked Davidson during initial phase
 perform sub-space diagonalisation
    before iterative eigenvector-optimisation
 modified Broyden-mixing scheme, WC =      100.0
 initial mixing is a Kerker type mixing with AMIX =  0.4000 and BMIX =      1.0000
 Hartree-type preconditioning will be used
 using additional bands           20
 reciprocal scheme for non local part
 use partial core corrections
 calculate Harris-corrections to forces 
   (improved forces if not selfconsistent)
 use of overlap-Matrix (Vanderbilt PP)
 Methfessel and Paxton  Order N= 1 SIGMA  =   0.20


--------------------------------------------------------------------------------------------------------


  energy-cutoff  :      250.00
  volume of cell :       21.95
      direct lattice vectors                 reciprocal lattice vectors
     2.800000000  0.000000000  0.000000000     0.357142857  0.000000000  0.000000000
     0.000000000  2.800000000  0.000000000     0.000000000  0.357142857  0.000000000
     0.000000000  0.000000000  2.800000000     0.000000000  0.000000000  0.357142857

  length of vectors
     2.800000000  2.800000000  2.800000000     0.357142857  0.357142857  0.357142857


 
 k-points in units of 2pi/SCALE and weight: Kpoints file generated with pyCMW       
   0.04464286  0.04464286  0.04464286       0.125
   0.13392857  0.04464286  0.04464286       0.125
  -0.13392857  0.04464286  0.04464286       0.125
   0.04464286  0.13392857  0.04464286       0.125
   0.13392857  0.13392857  0.04464286       0.125
  -0.13392857  0.13392857  0.04464286       0.125
   0.13392857  0.04464286  0.13392857       0.125
   0.13392857  0.13392857  0.13392857       0.125
 
 k-points in reciprocal lattice and weights: Kpoints file generated with pyCMW       
   0.12500000  0.12500000  0.12500000       0.125
   0.37500000  0.12500000  0.12500000       0.125
  -0.37500000  0.12500000  0.12500000       0.125
   0.12500000  0.37500000  0.12500000       0.125
   0.37500000  0.37500000  0.12500000       0.125
  -0.37500000  0.37500000  0.12500000       0.125
   0.37500000  0.12500000  0.37500000       0.125
   0.37500000  0.37500000  0.37500000       0.125
 
 position of ions in fractional coordinates (direct lattice) 
   0.00000000  0.00000000  0.00000000
   0.50000000  0.50000000  0.50000000
 
 position of ions in cartesian coordinates  (Angst):
   0.00000000  0.00000000  0.00000000
   1.40000000  1.40000000  1.40000000
 
 Euler angles ALPHA=     0.0000000  BETA=     0.0000000

 transformation matrix from SAXIS to cartesian coordinates
 ---------------------------------------------------------
     1.0000000 m_x     0.0000000 m_y     0.0000000 m_z
     0.0000000 m_x     1.0000000 m_y     0.0000000 m_z
     0.0000000 m_x     0.0000000 m_y     1.0000000 m_z

 transformation matrix from cartesian coordinates to SAXIS
 ---------------------------------------------------------
     1.0000000 m_x     0.0000000 m_y     0.0000000 m_z
     0.0000000 m_x     1.0000000 m_y     0.0000000 m_z
     0.0000000 m_x     0.0000000 m_y     1.0000000 m_z




--------------------------------------------------------------------------------------------------------


 k-point  1 :   0.1250 0.1250 0.1250  plane waves:     392
 k-point  2 :   0.3750 0.1250 0.1250  plane waves:     398
 k-point  3 :  -0.3750 0.1250 0.1250  plane waves:     398
 k-point  4 :   0.1250 0.3750 0.1250  plane waves:     398
 k-point  5 :   0.3750 0.3750 0.1250  plane waves:     392
 k-point  6 :  -0.3750 0.3750 0.1250  plane waves:     392
 k-point  7 :   0.3750 0.1250 0.3750  plane waves:     392
 k-point  8 :   0.3750 0.3750 0.3750  plane waves:     380

 maximum and minimum number of plane-waves per node :       398      380

 maximum number of plane-waves:       398
 maximum index in each direction: 
   IXMAX=    3   IYMAX=    3   IZMAX=    3
   IXMIN=   -3   IYMIN=   -3   IZMIN=   -3

 NGX is ok and might be reduce to  14
 NGY is ok and might be reduce to  14
 NGZ is ok and might be reduce to  14

 serial   3D FFT for wavefunctions
 parallel 3D FFT for charge:
    minimum data exchange during FFTs selected (reduces bandwidth)


 total amount of memory used by VASP on root node    34765. kBytes
========================================================================

   base      :      30000. kBytes
   nonl-proj :        236. kBytes
   fftplans  :        751. kBytes
   grid      :       2809. kBytes
   one-center:        124. kBytes
   wavefun   :        845. kBytes
 
     INWAV:  cpu time    0.00: real time    0.00
 Broyden mixing: mesh for mixing (old mesh)
   NGX =  7   NGY =  7   NGZ =  7
  (NGX  = 28   NGY  = 28   NGZ  = 28)
  gives a total of    343 points

 initial charge density was supplied:
 charge density of overlapping atoms calculated
 number of electron      16.0000000 magnetization       0.0000000      4.0000000      0.0000000
 keeping initial charge density in first step


--------------------------------------------------------------------------------------------------------


 Maximum index for augmentation-charges         2175 (set IRDMAX)


--------------------------------------------------------------------------------------------------------


 First call to EWALD:  gamma=   0.633
 Maximum number of real-space cells 3x 3x 3
 Maximum number of reciprocal cells 3x 3x 3

 FEWALD executed in parallel
    FEWALD:  cpu time    0.00: real time    0.00


----------------------------------------- Iteration    1(   1)  ---------------------------------------


    POTLOK:  cpu time    0.00: real time    0.00
    SETDIJ:  cpu time    0.01: real time    0.01
     EDDAV:  cpu time    0.09: real time    0.09
       DOS:  cpu time    0.00: real time    0.00
    --------------------------------------------
      LOOP:  cpu time    0.11: real time    0.11

 eigenvalue-minimisations  :   480
 total energy-change (2. order) : 0.6915406E+02  (-0.4263613E+03)
 number of electron      16.0000000 magnetization       0.0000000      4.0000000      0.0000000
 augmentation part       16.0000000 magnetization       0.0000000      4.0000000      0.0000000

 Free energy of the ion-electron system (eV)
  ---------------------------------------------------
  alpha Z        PSCENC =       122.02745190
  Ewald energy   TEWEN  =     -1197.80999809
  -Hartree energ DENC   =      -216.86274298
  -exchange      EXHF   =         0.00000000
  -V(xc)+E(xc)   XCENC  =        10.08420759
  PAW double counting   =       957.29487082     -975.92714918
  entropy T*S    EENTRO =        -0.01154859
  eigenvalues    EBANDS =       175.76173127
  atomic energy  EATOM  =      1194.59723597
  ---------------------------------------------------
  free energy    TOTEN  =        69.15405871 eV

  energy without entropy =       69.16560729  energy(sigma->0) =       69.15790823


--------------------------------------------------------------------------------------------------------




----------------------------------------- Iteration    1(   2)  ---------------------------------------


     EDDAV:  cpu time    0.08: real time    0.08
       DOS:  cpu time    0.00: real time    0.00
    --------------------------------------------
      LOOP:  cpu time    0.08: real time    0.08

 eigenvalue-minimisations  :   452
 total energy-change (2. order) :-0.8715510E+02  (-0.7962695E+02)
 number of electron      16.0000000 magnetization       0.0000000      4.0000000      0.0000000
 augmentation part       16.0000000 magnetization       0.0000000      4.0000000      0.0000000

 Free energy of the ion-electron system (eV)
  ---------------------------------------------------
  alpha Z        PSCENC =       122.02745190
  Ewald energy   TEWEN  =     -1197.80999809
  -Hartree energ DENC   =      -216.86274298
  -exchange      EXHF   =         0.00000000
  -V(xc)+E(xc)   XCENC  =        10.08420759
  PAW double counting   =       957.29487082     -975.92714918
  entropy T*S    EENTRO =        -0.00416510
  eigenvalues    EBANDS =        88.59925152
  atomic energy  EATOM  =      1194.59723597
  ---------------------------------------------------
  free energy    TOTEN  =       -18.00103756 eV

  energy without entropy =      -17.99687245  energy(sigma->0) =      -17.99964919


--------------------------------------------------------------------------------------------------------




----------------------------------------- Iteration    1(   3)  ---------------------------------------


     EDDAV:  cpu time    0.08: real time    0.08
       DOS:  cpu time    0.00: real time    0.00
    --------------------------------------------
      LOOP:  cpu time    0.08: real time    0.08

 eigenvalue-minimisations  :   516
 total energy-change (2. order) :-0.2849285E+01  (-0.2664299E+01)
 number of electron      16.0000000 magnetization       0.0000000      4.0000000      0.0000000
 augmentation part       16.0000000 magnetization       0.0000000      4.0000000      0.0000000

 Free energy of the ion-electron system (eV)
  ---------------------------------------------------
  alpha Z        PSCENC =       122.02745190
  Ewald energy   TEWEN  =     -1197.80999809
  -Hartree energ DENC   =      -216.86274298
  -exchange      EXHF   =         0.00000000
  -V(xc)+E(xc)   XCENC  =        10.08420759
  PAW double counting   =       957.29487082     -975.92714918
  entropy T*S    EENTRO =        -0.00816915
  eigenvalues    EBANDS =        85.75397040
  atomic energy  EATOM  =      1194.59723597
  ---------------------------------------------------
  free energy    TOTEN  =       -20.85032272 eV

  energy without entropy =      -20.84215357  energy(sigma->0) =      -20.84759967


--------------------------------------------------------------------------------------------------------




----------------------------------------- Iteration    1(   4)  ---------------------------------------


     EDDAV:  cpu time    0.07: real time    0.07
       DOS:  cpu time    0.00: real time    0.00
    --------------------------------------------
      LOOP:  cpu time    0.07: real time    0.07

 eigenvalue-minimisations  :   480
 total energy-change (2. order) :-0.2166557E-01  (-0.2164770E-01)
 number of electron      16.0000000 magnetization       0.0000000      4.0000000      0.0000000
 augmentation part       16.0000000 magnetization       0.0000000      4.0000000      0.0000000

 Free energy of the ion-electron system (eV)
  ---------------------------------------------------
  alpha Z        PSCENC =       122.02745190
  Ewald energy   TEWEN  =     -1197.80999809
  -Hartree energ DENC   =      -216.86274298
  -exchange      EXHF   =         0.00000000
  -V(xc)+E(xc)   XCENC  =        10.08420759
  PAW double counting   =       957.29487082     -975.92714918
  entropy T*S    EENTRO =        -0.00830778
  eigenvalues    EBANDS =        85.73244347
  atomic energy  EATOM  =      1194.59723597
  ---------------------------------------------------
  free energy    TOTEN  =       -20.87198829 eV

  energy without entropy =      -20.86368051  energy(sigma->0) =      -20.86921903


--------------------------------------------------------------------------------------------------------




----------------------------------------- Iteration    1(   5)  ---------------------------------------


     EDDAV:  cpu time    0.07: real time    0.07
       DOS:  cpu time    0.00: real time    0.00
    CHARGE:  cpu time    0.01: real time    0.01
    MIXING:  cpu time    0.00: real time    0.00
    --------------------------------------------
      LOOP:  cpu time    0.08: real time    0.08

 eigenvalue-minimisations  :   488
 total energy-change (2. order) :-0.2353223E-03  (-0.2353222E-03)
 number of electron      16.0000145 magnetization      -0.0000000      3.1360688     -0.0000000
 augmentation part        7.1681171 magnetization      -0.0000000      2.1903898     -0.0000000

 Broyden mixing:
  rms(total) = 0.12124E+01    rms(broyden)= 0.12082E+01
  rms(prec ) = 0.35266E+01
  weight for this iteration     100.00

 Free energy of the ion-electron system (eV)
  ---------------------------------------------------
  alpha Z        PSCENC =       122.02745190
  Ewald energy   TEWEN  =     -1197.80999809
  -Hartree energ DENC   =      -216.86274298
  -exchange      EXHF   =         0.00000000
  -V(xc)+E(xc)   XCENC  =        10.08420759
  PAW double counting   =       957.29487082     -975.92714918
  entropy T*S    EENTRO =        -0.00830871
  eigenvalues    EBANDS =        85.73220907
  atomic energy  EATOM  =      1194.59723597
  ---------------------------------------------------
  free energy    TOTEN  =       -20.87222361 eV

  energy without entropy =      -20.86391490  energy(sigma->0) =      -20.86945404


--------------------------------------------------------------------------------------------------------




----------------------------------------- Iteration    1(   6)  ---------------------------------------


    POTLOK:  cpu time    0.00: real time    0.00
    SETDIJ:  cpu time    0.01: real time    0.01
    EDDIAG:  cpu time    0.02: real time    0.02
  RMM-DIIS:  cpu time    0.05: real time    0.05
    ORTHCH:  cpu time    0.00: real time    0.00
       DOS:  cpu time    0.00: real time    0.00
    CHARGE:  cpu time    0.01: real time    0.01
    MIXING:  cpu time    0.00: real time    0.00
    --------------------------------------------
      LOOP:  cpu time    0.09: real time    0.09

 eigenvalue-minimisations  :   472
 total energy-change (2. order) : 0.2359172E+01  (-0.1408194E+01)
 number of electron      16.0000164 magnetization      -0.0000000      4.1168471      0.0000000
 augmentation part        8.5035004 magnetization      -0.0000000      3.2950910      0.0000000

 Broyden mixing:
  rms(total) = 0.51630E+00    rms(broyden)= 0.51500E+00
  rms(prec ) = 0.73819E+00
  weight for this iteration     100.00

 eigenvalues of (default mixing * dielectric matrix)
  average eigenvalue GAMMA=   0.6382
  0.6382

 Free energy of the ion-electron system (eV)
  ---------------------------------------------------
  alpha Z        PSCENC =       122.02745190
  Ewald energy   TEWEN  =     -1197.80999809
  -Hartree energ DENC   =      -183.53197021
  -exchange      EXHF   =         0.00000000
  -V(xc)+E(xc)   XCENC  =         8.34401656
  PAW double counting   =       957.84234337     -971.91597533
  entropy T*S    EENTRO =        -0.00525299
  eigenvalues    EBANDS =        51.93909674
  atomic energy  EATOM  =      1194.59723597
  ---------------------------------------------------
  free energy    TOTEN  =       -18.51305208 eV

  energy without entropy =      -18.50779909  energy(sigma->0) =      -18.51130108


--------------------------------------------------------------------------------------------------------




----------------------------------------- Iteration    1(   7)  ---------------------------------------


    POTLOK:  cpu time    0.00: real time    0.00
    SETDIJ:  cpu time    0.01: real time    0.01
    EDDIAG:  cpu time    0.02: real time    0.02
  RMM-DIIS:  cpu time    0.05: real time    0.05
    ORTHCH:  cpu time    0.00: real time    0.00
       DOS:  cpu time    0.00: real time    0.00
    CHARGE:  cpu time    0.01: real time    0.01
    MIXING:  cpu time    0.00: real time    0.00
    --------------------------------------------
      LOOP:  cpu time    0.09: real time    0.09

 eigenvalue-minimisations  :   451
 total energy-change (2. order) : 0.7431699E-01  (-0.6677373E-01)
 number of electron      16.0000159 magnetization       0.0000000      4.2261074     -0.0000000
 augmentation part        8.2066107 magnetization       0.0000000      3.3990214     -0.0000000

 Broyden mixing:
  rms(total) = 0.88266E-01    rms(broyden)= 0.88216E-01
  rms(prec ) = 0.24487E+00
  weight for this iteration     100.00

 eigenvalues of (default mixing * dielectric matrix)
  average eigenvalue GAMMA=   0.9434
  1.1476  0.7392

 Free energy of the ion-electron system (eV)
  ---------------------------------------------------
  alpha Z        PSCENC =       122.02745190
  Ewald energy   TEWEN  =     -1197.80999809
  -Hartree energ DENC   =      -187.80470770
  -exchange      EXHF   =         0.00000000
  -V(xc)+E(xc)   XCENC  =         9.37070521
  PAW double counting   =       992.98641062    -1010.67670973
  entropy T*S    EENTRO =        -0.01672112
  eigenvalues    EBANDS =        58.88759786
  atomic energy  EATOM  =      1194.59723597
  ---------------------------------------------------
  free energy    TOTEN  =       -18.43873509 eV

  energy without entropy =      -18.42201397  energy(sigma->0) =      -18.43316138


--------------------------------------------------------------------------------------------------------




----------------------------------------- Iteration    1(   8)  ---------------------------------------


    POTLOK:  cpu time    0.00: real time    0.00
    SETDIJ:  cpu time    0.01: real time    0.01
    EDDIAG:  cpu time    0.02: real time    0.02
  RMM-DIIS:  cpu time    0.05: real time    0.05
    ORTHCH:  cpu time    0.00: real time    0.00
       DOS:  cpu time    0.00: real time    0.00
    CHARGE:  cpu time    0.01: real time    0.01
    MIXING:  cpu time    0.00: real time    0.00
    --------------------------------------------
      LOOP:  cpu time    0.09: real time    0.09

 eigenvalue-minimisations  :   460
 total energy-change (2. order) : 0.2482510E-01  (-0.8596124E-03)
 number of electron      16.0000160 magnetization      -0.0000000      4.2517361      0.0000000
 augmentation part        8.2273147 magnetization      -0.0000000      3.4169182      0.0000000

 Broyden mixing:
  rms(total) = 0.43784E-01    rms(broyden)= 0.43623E-01
  rms(prec ) = 0.11964E+00
  weight for this iteration     100.00

 eigenvalues of (default mixing * dielectric matrix)
  average eigenvalue GAMMA=   0.9323
  1.3561  0.7205  0.7205

 Free energy of the ion-electron system (eV)
  ---------------------------------------------------
  alpha Z        PSCENC =       122.02745190
  Ewald energy   TEWEN  =     -1197.80999809
  -Hartree energ DENC   =      -185.92064158
  -exchange      EXHF   =         0.00000000
  -V(xc)+E(xc)   XCENC  =         9.35372353
  PAW double counting   =      1016.22694362    -1035.48675576
  entropy T*S    EENTRO =        -0.01507996
  eigenvalues    EBANDS =        58.61321039
  atomic energy  EATOM  =      1194.59723597
  ---------------------------------------------------
  free energy    TOTEN  =       -18.41390999 eV

  energy without entropy =      -18.39883003  energy(sigma->0) =      -18.40888334


--------------------------------------------------------------------------------------------------------




----------------------------------------- Iteration    1(   9)  ---------------------------------------


    POTLOK:  cpu time    0.00: real time    0.00
    SETDIJ:  cpu time    0.01: real time    0.01
    EDDIAG:  cpu time    0.02: real time    0.02
  RMM-DIIS:  cpu time    0.05: real time    0.05
    ORTHCH:  cpu time    0.00: real time    0.00
       DOS:  cpu time    0.00: real time    0.00
    CHARGE:  cpu time    0.01: real time    0.01
    MIXING:  cpu time    0.00: real time    0.00
    --------------------------------------------
      LOOP:  cpu time    0.09: real time    0.09

 eigenvalue-minimisations  :   463
 total energy-change (2. order) : 0.1003158E-01  (-0.9233497E-04)
 number of electron      16.0000160 magnetization      -0.0000000      4.2043676      0.0000000
 augmentation part        8.2345485 magnetization      -0.0000000      3.3716380      0.0000000

 Broyden mixing:
  rms(total) = 0.37260E-01    rms(broyden)= 0.37227E-01
  rms(prec ) = 0.57398E-01
  weight for this iteration     100.00

 eigenvalues of (default mixing * dielectric matrix)
  average eigenvalue GAMMA=   1.1684
  2.0529  1.1605  0.8277  0.6325

 Free energy of the ion-electron system (eV)
  ---------------------------------------------------
  alpha Z        PSCENC =       122.02745190
  Ewald energy   TEWEN  =     -1197.80999809
  -Hartree energ DENC   =      -184.64615557
  -exchange      EXHF   =         0.00000000
  -V(xc)+E(xc)   XCENC  =         9.34844278
  PAW double counting   =      1034.55994128    -1055.00945632
  entropy T*S    EENTRO =        -0.01457654
  eigenvalues    EBANDS =        58.54323619
  atomic energy  EATOM  =      1194.59723597
  ---------------------------------------------------
  free energy    TOTEN  =       -18.40387841 eV

  energy without entropy =      -18.38930188  energy(sigma->0) =      -18.39901957


--------------------------------------------------------------------------------------------------------




----------------------------------------- Iteration    1(  10)  ---------------------------------------


    POTLOK:  cpu time    0.00: real time    0.00
    SETDIJ:  cpu time    0.01: real time    0.01
    EDDIAG:  cpu time    0.02: real time    0.02
  RMM-DIIS:  cpu time    0.04: real time    0.04
    ORTHCH:  cpu time    0.00: real time    0.00
       DOS:  cpu time    0.00: real time    0.00
    CHARGE:  cpu time    0.01: real time    0.01
    MIXING:  cpu time    0.00: real time    0.00
    --------------------------------------------
      LOOP:  cpu time    0.09: real time    0.09

 eigenvalue-minimisations  :   426
 total energy-change (2. order) : 0.1657041E-02  (-0.4895744E-04)
 number of electron      16.0000160 magnetization       0.0000000      4.2128061      0.0000000
 augmentation part        8.2367257 magnetization       0.0000000      3.3789606      0.0000000

 Broyden mixing:
  rms(total) = 0.42971E-02    rms(broyden)= 0.42948E-02
  rms(prec ) = 0.99461E-02
  weight for this iteration     100.00

 eigenvalues of (default mixing * dielectric matrix)
  average eigenvalue GAMMA=   1.1693
  2.4476  1.1188  0.9104  0.7134  0.6563

 Free energy of the ion-electron system (eV)
  ---------------------------------------------------
  alpha Z        PSCENC =       122.02745190
  Ewald energy   TEWEN  =     -1197.80999809
  -Hartree energ DENC   =      -183.93475624
  -exchange      EXHF   =         0.00000000
  -V(xc)+E(xc)   XCENC  =         9.26524777
  PAW double counting   =      1045.74183401    -1066.82307853
  entropy T*S    EENTRO =        -0.01482765
  eigenvalues    EBANDS =        58.54866951
  atomic energy  EATOM  =      1194.59723597
  ---------------------------------------------------
  free energy    TOTEN  =       -18.40222137 eV

  energy without entropy =      -18.38739372  energy(sigma->0) =      -18.39727882


--------------------------------------------------------------------------------------------------------




----------------------------------------- Iteration    1(  11)  ---------------------------------------


    POTLOK:  cpu time    0.00: real time    0.00
    SETDIJ:  cpu time    0.01: real time    0.01
    EDDIAG:  cpu time    0.02: real time    0.02
  RMM-DIIS:  cpu time    0.03: real time    0.03
    ORTHCH:  cpu time    0.00: real time    0.00
       DOS:  cpu time    0.00: real time    0.00
    --------------------------------------------
      LOOP:  cpu time    0.06: real time    0.06

 eigenvalue-minimisations  :   248
 total energy-change (2. order) : 0.3529986E-04  (-0.6607259E-05)
 number of electron      16.0000160 magnetization       0.0000000      4.2128061      0.0000000
 augmentation part        8.2367257 magnetization       0.0000000      3.3789606      0.0000000

 Free energy of the ion-electron system (eV)
  ---------------------------------------------------
  alpha Z        PSCENC =       122.02745190
  Ewald energy   TEWEN  =     -1197.80999809
  -Hartree energ DENC   =      -183.84067398
  -exchange      EXHF   =         0.00000000
  -V(xc)+E(xc)   XCENC  =         9.26756581
  PAW double counting   =      1046.60872131    -1067.70608391
  entropy T*S    EENTRO =        -0.01487771
  eigenvalues    EBANDS =        58.46847263
  atomic energy  EATOM  =      1194.59723597
  ---------------------------------------------------
  free energy    TOTEN  =       -18.40218607 eV

  energy without entropy =      -18.38730836  energy(sigma->0) =      -18.39722683


--------------------------------------------------------------------------------------------------------




 average (electrostatic) potential at core
  the test charge radii are     1.0103
  (the norm of the test charge is              1.0000)
       1 -43.6702       2 -43.6702
 
 
 
 E-fermi :   5.9614     XC(G=0): -13.6120     alpha+bet :-14.0459


 k-point     1 :       0.1250    0.1250    0.1250
  band No.  band energies     occupation 
      1      -1.7129      1.00000
      2      -1.3250      1.00000
      3       1.4497      1.00000
      4       1.4497      1.00000
      5       2.9888      1.00000
      6       2.9888      1.00000
      7       3.4397      1.00000
      8       3.4397      1.00000
      9       4.2855      1.00000
     10       4.8870      1.00000
     11       4.9941      1.00000
     12       4.9941      1.00000
     13       5.1209      1.00000
     14       5.1209      1.00000
     15       5.9784      0.42822
     16       5.9784      0.42822
     17       6.0478      0.16939
     18       6.6180     -0.00002
     19       7.1953     -0.00000
     20       7.1953     -0.00000
     21       7.8900     -0.00000
     22       7.8900     -0.00000
     23      14.8143      0.00000
     24      14.8143      0.00000
     25      15.6261      0.00000
     26      15.6261      0.00000
     27      16.0020      0.00000
     28      16.6960      0.00000

 k-point     2 :       0.3750    0.1250    0.1250
  band No.  band energies     occupation 
      1       0.3602      1.00000
      2       0.8750      1.00000
      3       1.9263      1.00000
      4       2.2715      1.00000
      5       3.1062      1.00000
      6       3.1296      1.00000
      7       3.3397      1.00000
      8       3.7374      1.00000
      9       3.9022      1.00000
     10       4.4917      1.00000
     11       4.7837      1.00000
     12       4.7906      1.00000
     13       4.9351      1.00000
     14       5.2051      1.00000
     15       5.3853      1.00018
     16       5.6193      1.01811
     17       5.8162      0.96862
     18       6.4943     -0.00054
     19       6.5959     -0.00003
     20       7.0866     -0.00000
     21       7.7456     -0.00000
     22       7.7541     -0.00000
     23       8.8659     -0.00000
     24      10.2322     -0.00000
     25      18.0608      0.00000
     26      18.7155      0.00000
     27      19.0058      0.00000
     28      19.4812      0.00000

 k-point     3 :      -0.3750    0.1250    0.1250
  band No.  band energies     occupation 
      1       0.3602      1.00000
      2       0.8750      1.00000
      3       1.9263      1.00000
      4       2.2715      1.00000
      5       3.1062      1.00000
      6       3.1296      1.00000
      7       3.3397      1.00000
      8       3.7374      1.00000
      9       3.9022      1.00000
     10       4.4917      1.00000
     11       4.7837      1.00000
     12       4.7906      1.00000
     13       4.9351      1.00000
     14       5.2051      1.00000
     15       5.3853      1.00018
     16       5.6193      1.01811
     17       5.8162      0.96862
     18       6.4943     -0.00054
     19       6.5959     -0.00003
     20       7.0866     -0.00000
     21       7.7456     -0.00000
     22       7.7541     -0.00000
     23       8.8659     -0.00000
     24      10.2322     -0.00000
     25      18.0608      0.00000
     26      18.7155      0.00000
     27      19.0058      0.00000
     28      19.4812      0.00000

 k-point     4 :       0.1250    0.3750    0.1250
  band No.  band energies     occupation 
      1       0.3602      1.00000
      2       0.8750      1.00000
      3       1.9263      1.00000
      4       2.2715      1.00000
      5       3.1062      1.00000
      6       3.1296      1.00000
      7       3.3397      1.00000
      8       3.7374      1.00000
      9       3.9022      1.00000
     10       4.4917      1.00000
     11       4.7837      1.00000
     12       4.7906      1.00000
     13       4.9351      1.00000
     14       5.2051      1.00000
     15       5.3853      1.00018
     16       5.6193      1.01811
     17       5.8162      0.96862
     18       6.4943     -0.00054
     19       6.5959     -0.00003
     20       7.0866     -0.00000
     21       7.7456     -0.00000
     22       7.7541     -0.00000
     23       8.8659     -0.00000
     24      10.2322     -0.00000
     25      18.0608      0.00000
     26      18.7155      0.00000
     27      19.0058      0.00000
     28      19.4812      0.00000

 k-point     5 :       0.3750    0.3750    0.1250
  band No.  band energies     occupation 
      1       1.0727      1.00000
      2       1.4699      1.00000
      3       2.0270      1.00000
      4       2.6008      1.00000
      5       2.7556      1.00000
      6       2.7853      1.00000
      7       3.6193      1.00000
      8       3.9979      1.00000
      9       4.1635      1.00000
     10       4.3457      1.00000
     11       4.9192      1.00000
     12       5.0196      1.00000
     13       5.0616      1.00000
     14       5.1152      1.00000
     15       5.2420      1.00000
     16       6.0004      0.33838
     17       6.8569     -0.00000
     18       6.9407     -0.00000
     19       7.1812     -0.00000
     20       7.5052     -0.00000
     21       7.9866     -0.00000
     22       8.5710     -0.00000
     23       9.3578     -0.00000
     24      10.5763     -0.00000
     25      13.8257      0.00000
     26      15.0376      0.00000
     27      16.8395      0.00000
     28      17.8340      0.00000

 k-point     6 :      -0.3750    0.3750    0.1250
  band No.  band energies     occupation 
      1       1.0727      1.00000
      2       1.4699      1.00000
      3       2.0270      1.00000
      4       2.6008      1.00000
      5       2.7556      1.00000
      6       2.7853      1.00000
      7       3.6193      1.00000
      8       3.9979      1.00000
      9       4.1635      1.00000
     10       4.3457      1.00000
     11       4.9192      1.00000
     12       5.0196      1.00000
     13       5.0616      1.00000
     14       5.1152      1.00000
     15       5.2420      1.00000
     16       6.0004      0.33838
     17       6.8569     -0.00000
     18       6.9407     -0.00000
     19       7.1812     -0.00000
     20       7.5052     -0.00000
     21       7.9866     -0.00000
     22       8.5710     -0.00000
     23       9.3578     -0.00000
     24      10.5763     -0.00000
     25      13.8257      0.00000
     26      15.0376      0.00000
     27      16.8395      0.00000
     28      17.8340      0.00000

 k-point     7 :       0.3750    0.1250    0.3750
  band No.  band energies     occupation 
      1       1.0727      1.00000
      2       1.4699      1.00000
      3       2.0270      1.00000
      4       2.6008      1.00000
      5       2.7556      1.00000
      6       2.7853      1.00000
      7       3.6193      1.00000
      8       3.9979      1.00000
      9       4.1635      1.00000
     10       4.3457      1.00000
     11       4.9192      1.00000
     12       5.0196      1.00000
     13       5.0616      1.00000
     14       5.1152      1.00000
     15       5.2420      1.00000
     16       6.0004      0.33838
     17       6.8569     -0.00000
     18       6.9407     -0.00000
     19       7.1812     -0.00000
     20       7.5052     -0.00000
     21       7.9866     -0.00000
     22       8.5710     -0.00000
     23       9.3578     -0.00000
     24      10.5763     -0.00000
     25      13.8257      0.00000
     26      15.0376      0.00000
     27      16.8395      0.00000
     28      17.8340      0.00000

 k-point     8 :       0.3750    0.3750    0.3750
  band No.  band energies     occupation 
      1       2.1156      1.00000
      2       2.4791      1.00000
      3       2.4791      1.00000
      4       2.6489      1.00000
      5       2.8829      1.00000
      6       2.8829      1.00000
      7       3.5145      1.00000
      8       3.6035      1.00000
      9       3.9218      1.00000
     10       3.9218      1.00000
     11       4.2169      1.00000
     12       4.2169      1.00000
     13       5.2604      1.00000
     14       5.2604      1.00000
     15       5.3124      1.00002
     16       5.3124      1.00002
     17       7.4933     -0.00000
     18       7.4933     -0.00000
     19       7.5075     -0.00000
     20       7.5075     -0.00000
     21       9.5962     -0.00000
     22      11.0120     -0.00000
     23      13.1719      0.00000
     24      13.1719      0.00000
     25      14.2559      0.00000
     26      14.2559      0.00000
     27      15.8281      0.00000
     28      16.7125      0.00000


--------------------------------------------------------------------------------------------------------


 soft charge-density along one line, spin component           1
         0         1         2         3         4         5         6         7         8         9
 total charge-density along one line
 
 soft charge-density along one line, spin component           2
         0         1         2         3         4         5         6         7         8         9
 total charge-density along one line
 
 soft charge-density along one line, spin component           3
         0         1         2         3         4         5         6         7         8         9
 total charge-density along one line
 
 soft charge-density along one line, spin component           4
         0         1         2         3         4         5         6         7         8         9
 total charge-density along one line
 
 pseudopotential strength for first ion, spin component:           1
 -4.836   0.000  -0.000   0.000   0.000   0.000  -0.000   0.000   0.000   0.000  -0.857   0.000   0.000   0.000  -0.000   0.000
 -0.000   0.000  -4.836   0.000  -0.000   0.000  -0.000   0.000   0.000   0.000   0.000   0.000  -0.857   0.000   0.000   0.000
  0.000   0.000  -0.000   0.000  -4.831   0.000  -0.000   0.000  -0.000   0.000  -0.000   0.000   0.000   0.000  -0.858   0.000
 -0.000   0.000  -0.000   0.000  -0.000   0.000  -4.836   0.000   0.000   0.000   0.000   0.000   0.000   0.000   0.000   0.000
  0.000   0.000   0.000   0.000  -0.000   0.000   0.000   0.000  -4.831   0.000  -0.000   0.000  -0.000   0.000   0.000   0.000
 -0.857   0.000   0.000   0.000  -0.000   0.000   0.000   0.000  -0.000   0.000   0.990   0.000  -0.000   0.000   0.000   0.000
  0.000   0.000  -0.857   0.000   0.000   0.000   0.000   0.000  -0.000   0.000  -0.000   0.000   0.990   0.000  -0.000   0.000
 -0.000   0.000   0.000   0.000  -0.858   0.000   0.000   0.000   0.000   0.000   0.000   0.000  -0.000   0.000   0.990   0.000
  0.000   0.000   0.000   0.000   0.000   0.000  -0.857   0.000  -0.000   0.000  -0.000   0.000  -0.000   0.000  -0.000   0.000
 -0.000   0.000  -0.000   0.000   0.000   0.000  -0.000   0.000  -0.858   0.000   0.000   0.000   0.000   0.000  -0.000   0.000
  0.000   0.000   0.000   0.000  -0.000   0.000  -0.000   0.000  -0.000   0.000   0.000   0.000   0.000   0.000   0.000   0.000
 -0.000   0.000  -0.000   0.000   0.000   0.000   0.000   0.000   0.000   0.000   0.000   0.000   0.000   0.000  -0.000   0.000
  0.000   0.000   0.000   0.000   0.000   0.000   0.000   0.000   0.000   0.000  -0.000   0.000  -0.000   0.000  -0.000   0.000
  0.000   0.000  -0.000   0.000   0.000   0.000   0.000   0.000   0.000   0.000   0.000   0.000   0.000   0.000  -0.000   0.000
 -0.000   0.000   0.000   0.000  -0.000   0.000   0.000   0.000  -0.000   0.000   0.000   0.000   0.000   0.000   0.000   0.000
 -0.000   0.000  -0.000   0.000  -0.000   0.000  -0.000   0.000  -0.000   0.000   0.000   0.000   0.000   0.000   0.000   0.000
 -0.000   0.000   0.000   0.000  -0.000   0.000  -0.000   0.000  -0.000   0.000   0.000   0.000  -0.000   0.000   0.000   0.000
  0.000   0.000  -0.000   0.000   0.000   0.000  -0.000   0.000   0.000   0.000  -0.000   0.000   0.000   0.000  -0.000   0.000
 pseudopotential strength for first ion, spin component:           2
 -0.000   0.639   0.000  -0.000   0.000  -0.000   0.000   0.000   0.000  -0.000   0.000  -0.196  -0.000   0.000  -0.000   0.000
  0.000  -0.000  -0.000   0.639  -0.000   0.000  -0.000   0.000  -0.000  -0.000  -0.000   0.000   0.000  -0.196   0.000  -0.000
  0.000  -0.000  -0.000   0.000   0.000   0.772   0.000   0.000   0.000   0.000  -0.000   0.000   0.000  -0.000  -0.000  -0.236
  0.000   0.000  -0.000   0.000   0.000   0.000  -0.000   0.639   0.000  -0.000  -0.000  -0.000   0.000  -0.000  -0.000  -0.000
  0.000  -0.000  -0.000  -0.000   0.000   0.000   0.000  -0.000  -0.000   0.772  -0.000   0.000   0.000   0.000  -0.000  -0.000
  0.000  -0.196  -0.000   0.000  -0.000   0.000  -0.000  -0.000  -0.000   0.000  -0.000   0.059   0.000  -0.000   0.000  -0.000
 -0.000   0.000   0.000  -0.196   0.000  -0.000   0.000  -0.000   0.000   0.000   0.000  -0.000  -0.000   0.059   0.000   0.000
 -0.000   0.000   0.000  -0.000  -0.000  -0.236  -0.000  -0.000  -0.000  -0.000   0.000  -0.000   0.000   0.000   0.000   0.071
 -0.000  -0.000   0.000  -0.000  -0.000  -0.000   0.000  -0.196  -0.000   0.000   0.000   0.000  -0.000   0.000   0.000   0.000
 -0.000   0.000   0.000   0.000  -0.000  -0.000  -0.000   0.000   0.000  -0.236   0.000  -0.000  -0.000  -0.000   0.000   0.000
  0.000  -0.000  -0.000  -0.000  -0.000   0.000  -0.000   0.000  -0.000   0.000   0.000   0.000  -0.000  -0.000  -0.000  -0.000
 -0.000   0.000   0.000   0.000   0.000  -0.000   0.000  -0.000   0.000  -0.000   0.000  -0.000  -0.000  -0.000  -0.000   0.000
 -0.000   0.000  -0.000  -0.000   0.000  -0.000   0.000  -0.000   0.000  -0.000   0.000  -0.000   0.000   0.000  -0.000   0.000
  0.000  -0.000  -0.000   0.000  -0.000  -0.000  -0.000   0.000   0.000  -0.000   0.000  -0.000   0.000  -0.000   0.000   0.000
 -0.000   0.000   0.000  -0.000   0.000  -0.000  -0.000  -0.000  -0.000   0.000   0.000  -0.000   0.000  -0.000  -0.000   0.000
  0.000  -0.000   0.000   0.000  -0.000   0.000  -0.000   0.000  -0.000   0.000  -0.000   0.000  -0.000  -0.000   0.000  -0.000
 -0.000   0.000   0.000  -0.000   0.000   0.000   0.000  -0.000  -0.000   0.000   0.000  -0.000  -0.000   0.000  -0.000  -0.000
  0.000  -0.000  -0.000   0.000  -0.000   0.000  -0.000   0.000   0.000  -0.000  -0.000   0.000   0.000  -0.000   0.000  -0.000
 pseudopotential strength for first ion, spin component:           3
 -0.000  -0.639   0.000   0.000   0.000   0.000   0.000  -0.000   0.000   0.000   0.000   0.196  -0.000  -0.000  -0.000  -0.000
  0.000   0.000  -0.000  -0.639  -0.000  -0.000  -0.000  -0.000  -0.000   0.000  -0.000  -0.000   0.000   0.196   0.000   0.000
  0.000   0.000  -0.000  -0.000   0.000  -0.772   0.000  -0.000   0.000  -0.000  -0.000  -0.000   0.000   0.000  -0.000   0.236
  0.000  -0.000  -0.000  -0.000   0.000  -0.000  -0.000  -0.639   0.000   0.000  -0.000   0.000   0.000   0.000  -0.000   0.000
  0.000   0.000  -0.000   0.000   0.000  -0.000   0.000   0.000  -0.000  -0.772  -0.000  -0.000   0.000  -0.000  -0.000   0.000
  0.000   0.196  -0.000  -0.000  -0.000  -0.000  -0.000   0.000  -0.000  -0.000  -0.000  -0.059   0.000   0.000   0.000   0.000
 -0.000  -0.000   0.000   0.196   0.000   0.000   0.000   0.000   0.000  -0.000   0.000   0.000  -0.000  -0.059   0.000  -0.000
 -0.000  -0.000   0.000   0.000  -0.000   0.236  -0.000   0.000  -0.000   0.000   0.000   0.000   0.000  -0.000   0.000  -0.071
 -0.000   0.000   0.000   0.000  -0.000   0.000   0.000   0.196  -0.000  -0.000   0.000  -0.000  -0.000  -0.000   0.000  -0.000
 -0.000  -0.000   0.000  -0.000  -0.000   0.000  -0.000  -0.000   0.000   0.236   0.000   0.000  -0.000   0.000   0.000  -0.000
  0.000   0.000  -0.000   0.000  -0.000  -0.000  -0.000  -0.000  -0.000  -0.000   0.000  -0.000  -0.000   0.000  -0.000   0.000
 -0.000  -0.000   0.000  -0.000   0.000   0.000   0.000   0.000   0.000   0.000   0.000   0.000  -0.000   0.000  -0.000  -0.000
 -0.000  -0.000  -0.000   0.000   0.000   0.000   0.000   0.000   0.000   0.000   0.000   0.000   0.000  -0.000  -0.000  -0.000
  0.000   0.000  -0.000  -0.000  -0.000   0.000  -0.000  -0.000   0.000   0.000   0.000   0.000   0.000   0.000   0.000  -0.000
 -0.000  -0.000   0.000   0.000   0.000   0.000  -0.000   0.000  -0.000  -0.000   0.000   0.000   0.000   0.000  -0.000  -0.000
  0.000   0.000   0.000  -0.000  -0.000  -0.000  -0.000  -0.000  -0.000  -0.000  -0.000  -0.000  -0.000   0.000   0.000   0.000
 -0.000  -0.000   0.000   0.000   0.000  -0.000   0.000   0.000  -0.000  -0.000   0.000   0.000  -0.000  -0.000  -0.000   0.000
  0.000   0.000  -0.000  -0.000  -0.000  -0.000  -0.000  -0.000   0.000   0.000  -0.000  -0.000   0.000   0.000   0.000   0.000
 pseudopotential strength for first ion, spin component:           4
 -4.836   0.000  -0.000   0.000  -0.000   0.000   0.000   0.000  -0.000   0.000  -0.857   0.000   0.000   0.000   0.000   0.000
 -0.000   0.000  -4.836   0.000   0.000   0.000   0.000   0.000  -0.000   0.000   0.000   0.000  -0.857   0.000  -0.000   0.000
 -0.000   0.000   0.000   0.000  -4.831   0.000  -0.000   0.000  -0.000   0.000   0.000   0.000  -0.000   0.000  -0.858   0.000
  0.000   0.000   0.000   0.000  -0.000   0.000  -4.836   0.000   0.000   0.000  -0.000   0.000  -0.000   0.000   0.000   0.000
 -0.000   0.000  -0.000   0.000  -0.000   0.000   0.000   0.000  -4.831   0.000   0.000   0.000   0.000   0.000   0.000   0.000
 -0.857   0.000   0.000   0.000   0.000   0.000  -0.000   0.000   0.000   0.000   0.990   0.000  -0.000   0.000  -0.000   0.000
  0.000   0.000  -0.857   0.000  -0.000   0.000  -0.000   0.000   0.000   0.000  -0.000   0.000   0.990   0.000   0.000   0.000
  0.000   0.000  -0.000   0.000  -0.858   0.000   0.000   0.000   0.000   0.000  -0.000   0.000   0.000   0.000   0.990   0.000
 -0.000   0.000  -0.000   0.000   0.000   0.000  -0.857   0.000  -0.000   0.000   0.000   0.000   0.000   0.000  -0.000   0.000
  0.000   0.000   0.000   0.000   0.000   0.000  -0.000   0.000  -0.858   0.000  -0.000   0.000  -0.000   0.000  -0.000   0.000
 -0.000   0.000  -0.000   0.000  -0.000   0.000  -0.000   0.000  -0.000   0.000  -0.000   0.000  -0.000   0.000   0.000   0.000
  0.000   0.000   0.000   0.000   0.000   0.000   0.000   0.000   0.000   0.000  -0.000   0.000  -0.000   0.000  -0.000   0.000
  0.000   0.000   0.000   0.000   0.000   0.000   0.000   0.000   0.000   0.000  -0.000   0.000  -0.000   0.000  -0.000   0.000
  0.000   0.000  -0.000   0.000   0.000   0.000   0.000   0.000   0.000   0.000   0.000   0.000   0.000   0.000  -0.000   0.000
 -0.000   0.000   0.000   0.000  -0.000   0.000   0.000   0.000  -0.000   0.000   0.000   0.000   0.000   0.000   0.000   0.000
 -0.000   0.000  -0.000   0.000  -0.000   0.000  -0.000   0.000  -0.000   0.000   0.000   0.000   0.000   0.000   0.000   0.000
 -0.000   0.000   0.000   0.000  -0.000   0.000  -0.000   0.000  -0.000   0.000   0.000   0.000  -0.000   0.000   0.000   0.000
  0.000   0.000  -0.000   0.000   0.000   0.000  -0.000   0.000   0.000   0.000  -0.000   0.000   0.000   0.000  -0.000   0.000
 total augmentation occupancy for first ion, spin component:           1
  1.460   0.000  -0.000  -0.000   0.000   0.210   0.000   0.000   0.000   0.000  -0.000  -0.000   0.000  -0.000   0.000   0.000
 -0.000   1.460   0.000   0.000   0.000  -0.000   0.210  -0.000  -0.000   0.000  -0.000  -0.000   0.000  -0.000  -0.000   0.000
  0.000   0.000   1.313  -0.000   0.000   0.000  -0.000   0.082   0.000  -0.000   0.000  -0.000   0.000   0.000   0.000   0.000
  0.000  -0.000  -0.000   1.460   0.000  -0.000  -0.000  -0.000   0.210   0.000   0.000   0.000   0.000  -0.000   0.000   0.000
  0.000   0.000   0.000   0.000   1.313  -0.000   0.000  -0.000  -0.000   0.082   0.000  -0.000   0.000   0.000   0.000   0.000
  0.210  -0.000  -0.000   0.000  -0.000   0.167   0.000   0.000  -0.000   0.000  -0.000   0.000  -0.000   0.000   0.000   0.000
  0.000   0.210   0.000  -0.000  -0.000  -0.000   0.167   0.000  -0.000  -0.000   0.000   0.000   0.000   0.000   0.000   0.000
  0.000   0.000   0.082  -0.000  -0.000   0.000   0.000   0.215   0.000   0.000  -0.000  -0.000   0.000   0.000   0.000   0.000
 -0.000   0.000   0.000   0.210  -0.000  -0.000   0.000   0.000   0.167  -0.000   0.000   0.000   0.000   0.000   0.000   0.000
  0.000   0.000  -0.000   0.000   0.082   0.000   0.000   0.000  -0.000   0.215  -0.000  -0.000   0.000   0.000  -0.000   0.000
 -0.000   0.000   0.000   0.000   0.000  -0.000   0.000  -0.000  -0.000  -0.000   1.468  -0.318   0.000   0.000   0.000  -0.000
  0.000  -0.000  -0.000  -0.000  -0.000   0.000   0.000  -0.000   0.000  -0.000  -0.318   0.094   0.000   0.000   0.000   0.000
  0.000   0.000  -0.000   0.000   0.000  -0.000   0.000   0.000   0.000   0.000   0.000   0.000   0.235   0.000  -0.000  -0.013
 -0.000  -0.000   0.000  -0.000   0.000  -0.000   0.000   0.000   0.000   0.000   0.000   0.000   0.000   0.235   0.000  -0.000
  0.000   0.000   0.000   0.000   0.000   0.000   0.000   0.000   0.000   0.000   0.000   0.000  -0.000   0.000   0.235   0.000
  0.000   0.000   0.000   0.000   0.000   0.000   0.000   0.000   0.000   0.000   0.000   0.000  -0.013   0.000   0.000   0.001
 -0.000  -0.000   0.000   0.000   0.000   0.000   0.000   0.000   0.000   0.000   0.000  -0.000  -0.000  -0.013   0.000  -0.000
  0.000  -0.000   0.000   0.000   0.000   0.000   0.000   0.000   0.000   0.000   0.000   0.000  -0.000  -0.000  -0.013  -0.000
 total augmentation occupancy for first ion, spin component:           2
 -0.000   0.000   0.000   0.000   0.000   0.000   0.000  -0.000  -0.000   0.000  -0.000  -0.000  -0.000  -0.000   0.000   0.000
  0.000   0.000  -0.000  -0.000  -0.000   0.000  -0.000  -0.000   0.000   0.000  -0.000   0.000  -0.000  -0.000   0.000   0.000
  0.000  -0.000   0.000   0.000   0.000  -0.000  -0.000   0.000   0.000   0.000   0.000   0.000  -0.000   0.000   0.000  -0.000
  0.000  -0.000   0.000  -0.000   0.000  -0.000   0.000   0.000   0.000   0.000   0.000  -0.000   0.000   0.000   0.000  -0.000
  0.000  -0.000   0.000   0.000   0.000   0.000   0.000  -0.000   0.000  -0.000   0.000  -0.000   0.000   0.000   0.000   0.000
  0.000  -0.000  -0.000  -0.000   0.000   0.000   0.000   0.000  -0.000   0.000  -0.000  -0.000   0.000   0.000   0.000   0.000
  0.000   0.000  -0.000   0.000   0.000   0.000  -0.000  -0.000  -0.000   0.000  -0.000   0.000   0.000   0.000   0.000   0.000
 -0.000  -0.000   0.000   0.000  -0.000   0.000  -0.000   0.000   0.000   0.000   0.000   0.000   0.000   0.000   0.000   0.000
 -0.000   0.000  -0.000   0.000  -0.000  -0.000  -0.000   0.000   0.000   0.000  -0.000  -0.000   0.000   0.000   0.000   0.000
  0.000   0.000  -0.000   0.000  -0.000   0.000   0.000  -0.000   0.000  -0.000   0.000   0.000   0.000   0.000   0.000   0.000
 -0.000  -0.000  -0.000   0.000  -0.000  -0.000  -0.000   0.000  -0.000   0.000  -0.000   0.000   0.000  -0.000  -0.000   0.000
 -0.000   0.000   0.000  -0.000  -0.000  -0.000   0.000   0.000   0.000   0.000   0.000   0.000   0.000   0.000   0.000   0.000
 -0.000  -0.000  -0.000   0.000  -0.000  -0.000   0.000   0.000   0.000   0.000   0.000   0.000   0.000  -0.000   0.000   0.000
  0.000  -0.000   0.000   0.000   0.000   0.000   0.000   0.000   0.000   0.000  -0.000   0.000  -0.000   0.000   0.000  -0.000
  0.000   0.000  -0.000   0.000   0.000   0.000   0.000   0.000   0.000   0.000  -0.000   0.000   0.000   0.000   0.000   0.000
  0.000   0.000  -0.000   0.000   0.000  -0.000   0.000   0.000  -0.000   0.000  -0.000  -0.000   0.000  -0.000   0.000   0.000
  0.000  -0.000  -0.000   0.000   0.000   0.000  -0.000  -0.000   0.000  -0.000  -0.000  -0.000   0.000  -0.000   0.000   0.000
  0.000   0.000   0.000  -0.000   0.000  -0.000   0.000   0.000   0.000   0.000  -0.000  -0.000  -0.000  -0.000   0.000  -0.000
 total augmentation occupancy for first ion, spin component:           3
  0.296   0.000   0.000  -0.000  -0.000  -0.184   0.000   0.000  -0.000  -0.000  -0.000   0.000  -0.000   0.000   0.000   0.000
 -0.000   0.296   0.000   0.000   0.000  -0.000  -0.184  -0.000  -0.000   0.000   0.000  -0.000   0.000   0.000  -0.000   0.000
  0.000   0.000   0.578   0.000  -0.000   0.000   0.000  -0.268  -0.000  -0.000   0.000  -0.000  -0.000   0.000   0.000  -0.000
 -0.000   0.000   0.000   0.296  -0.000   0.000   0.000  -0.000  -0.184   0.000   0.000   0.000   0.000  -0.000   0.000   0.000
 -0.000   0.000  -0.000  -0.000   0.578  -0.000  -0.000  -0.000   0.000  -0.268   0.000  -0.000   0.000   0.000  -0.000  -0.000
 -0.184  -0.000   0.000   0.000  -0.000   0.004   0.000  -0.000   0.000   0.000  -0.000  -0.000   0.000  -0.000   0.000   0.000
  0.000  -0.184  -0.000   0.000   0.000   0.000   0.004   0.000   0.000   0.000  -0.000   0.000   0.000   0.000  -0.000   0.000
 -0.000   0.000  -0.268  -0.000  -0.000   0.000   0.000   0.029  -0.000   0.000  -0.000  -0.000  -0.000   0.000   0.000   0.000
 -0.000   0.000  -0.000  -0.184   0.000  -0.000  -0.000  -0.000   0.004   0.000  -0.000  -0.000   0.000   0.000   0.000   0.000
 -0.000   0.000  -0.000   0.000  -0.268   0.000  -0.000   0.000   0.000   0.029  -0.000  -0.000  -0.000  -0.000   0.000   0.000
  0.000  -0.000   0.000   0.000   0.000  -0.000   0.000  -0.000   0.000  -0.000   0.014   0.080   0.000   0.000  -0.000   0.000
  0.000  -0.000  -0.000   0.000  -0.000   0.000   0.000  -0.000   0.000  -0.000   0.080  -0.032   0.000   0.000   0.000   0.000
 -0.000   0.000  -0.000   0.000   0.000   0.000   0.000  -0.000   0.000   0.000   0.000   0.000  -0.016  -0.000   0.000   0.002
 -0.000   0.000   0.000   0.000   0.000   0.000   0.000   0.000   0.000  -0.000   0.000   0.000  -0.000  -0.016   0.000  -0.000
  0.000   0.000   0.000   0.000   0.000   0.000   0.000   0.000   0.000   0.000  -0.000   0.000  -0.000   0.000  -0.016  -0.000
  0.000   0.000   0.000   0.000  -0.000   0.000   0.000   0.000   0.000   0.000   0.000   0.000   0.002   0.000  -0.000  -0.000
  0.000   0.000  -0.000  -0.000  -0.000   0.000   0.000   0.000   0.000  -0.000   0.000  -0.000  -0.000   0.002   0.000   0.000
 -0.000  -0.000   0.000  -0.000   0.000  -0.000   0.000  -0.000   0.000  -0.000   0.000   0.000   0.000  -0.000   0.002  -0.000
 total augmentation occupancy for first ion, spin component:           4
  0.000   0.000  -0.000  -0.000   0.000  -0.000   0.000  -0.000   0.000   0.000   0.000  -0.000  -0.000   0.000   0.000  -0.000
  0.000   0.000  -0.000  -0.000   0.000   0.000   0.000   0.000   0.000  -0.000  -0.000  -0.000   0.000   0.000   0.000   0.000
 -0.000  -0.000   0.000   0.000   0.000  -0.000   0.000   0.000   0.000   0.000   0.000   0.000   0.000   0.000   0.000  -0.000
 -0.000  -0.000   0.000   0.000   0.000   0.000   0.000  -0.000   0.000  -0.000  -0.000   0.000   0.000   0.000   0.000  -0.000
  0.000   0.000   0.000   0.000   0.000   0.000  -0.000  -0.000   0.000   0.000   0.000   0.000   0.000  -0.000   0.000   0.000
 -0.000   0.000  -0.000   0.000   0.000   0.000   0.000  -0.000  -0.000   0.000   0.000  -0.000   0.000  -0.000   0.000  -0.000
  0.000  -0.000   0.000   0.000  -0.000   0.000   0.000   0.000   0.000   0.000  -0.000  -0.000   0.000   0.000   0.000   0.000
 -0.000   0.000   0.000   0.000  -0.000  -0.000   0.000  -0.000  -0.000   0.000   0.000   0.000   0.000   0.000   0.000  -0.000
  0.000   0.000   0.000  -0.000   0.000  -0.000   0.000   0.000  -0.000   0.000   0.000  -0.000   0.000   0.000   0.000   0.000
  0.000  -0.000  -0.000   0.000   0.000   0.000   0.000  -0.000   0.000   0.000   0.000   0.000   0.000   0.000   0.000   0.000
  0.000  -0.000   0.000  -0.000   0.000   0.000  -0.000   0.000   0.000   0.000   0.000   0.000  -0.000  -0.000   0.000   0.000
 -0.000  -0.000  -0.000  -0.000  -0.000  -0.000  -0.000   0.000  -0.000   0.000   0.000  -0.000   0.000   0.000  -0.000   0.000
 -0.000  -0.000   0.000   0.000   0.000  -0.000  -0.000   0.000   0.000   0.000  -0.000   0.000   0.000   0.000   0.000  -0.000
  0.000   0.000   0.000   0.000  -0.000  -0.000   0.000   0.000   0.000   0.000  -0.000   0.000   0.000   0.000   0.000   0.000
  0.000   0.000  -0.000   0.000   0.000   0.000   0.000   0.000   0.000   0.000   0.000  -0.000   0.000  -0.000   0.000   0.000
  0.000   0.000   0.000  -0.000   0.000  -0.000   0.000   0.000  -0.000   0.000   0.000   0.000   0.000   0.000   0.000   0.000
 -0.000   0.000   0.000   0.000  -0.000  -0.000   0.000   0.000  -0.000  -0.000  -0.000  -0.000  -0.000  -0.000   0.000  -0.000
  0.000   0.000  -0.000   0.000   0.000   0.000   0.000  -0.000   0.000  -0.000   0.000   0.000  -0.000  -0.000  -0.000  -0.000


------------------------ aborting loop because EDIFF is reached ----------------------------------------


    CHARGE:  cpu time    0.01: real time    0.01
    FORLOC:  cpu time    0.00: real time    0.00
    FORNL :  cpu time    0.03: real time    0.03
    STRESS:  cpu time    0.07: real time    0.07
    FORCOR:  cpu time    0.00: real time    0.00
    FORHAR:  cpu time    0.00: real time    0.00
    MIXING:  cpu time    0.00: real time    0.00
    OFIELD:  cpu time    0.00: real time    0.00

  FORCE on cell =-STRESS in cart. coord.  units (eV):
  Direction    XX          YY          ZZ          XY          YZ          ZX
  --------------------------------------------------------------------------------------
  Alpha Z   122.02745   122.02745   122.02745
  Ewald    -399.26997  -399.26997  -399.26997     0.00000    -0.00000    -0.00000
  Hartree    61.29482    61.29482    61.29482    -0.00000    -0.00000    -0.00000
  E(xc)     -79.08676   -79.08676   -79.08676    -0.00000     0.00000     0.00000
  Local     119.45678   119.45677   119.45678    -0.00000     0.00000     0.00000
  n-local   -54.79865   -53.13826   -51.47787     0.53348     0.13342     0.51818
  augment    76.60245    76.60245    76.60245     0.00000     0.00000     0.00000
  Kinetic   150.16150   148.80689   147.45227     0.32626    -0.35441     0.70879
  Fock        0.00000     0.00000     0.00000     0.00000     0.00000     0.00000
  -------------------------------------------------------------------------------------
  Total      -3.30660    -3.30660    -3.30660     0.00000    -0.00000     0.00000
  in kB    -241.33405  -241.33409  -241.33405     0.00000    -0.00000     0.00000
  external pressure =     -241.33 kB  Pullay stress =        0.00 kB


 VOLUME and BASIS-vectors are now :
 -----------------------------------------------------------------------------
  energy-cutoff  :      250.00
  volume of cell :       21.95
      direct lattice vectors                 reciprocal lattice vectors
     2.800000000  0.000000000  0.000000000     0.357142857  0.000000000  0.000000000
     0.000000000  2.800000000  0.000000000     0.000000000  0.357142857  0.000000000
     0.000000000  0.000000000  2.800000000     0.000000000  0.000000000  0.357142857

  length of vectors
     2.800000000  2.800000000  2.800000000     0.357142857  0.357142857  0.357142857


 FORCES acting on ions
    electron-ion (+dipol)            ewald-force                    non-local-force                 convergence-correction
 -----------------------------------------------------------------------------------------------
   -.120E-13 -.109E-13 -.112E-13   0.432E-14 0.119E-14 -.110E-14   0.455E-23 -.132E-22 0.000E+00   0.694E-14 0.140E-14 0.151E-14
   0.202E-12 0.198E-12 0.200E-12   -.429E-14 -.309E-15 0.596E-15   0.000E+00 -.265E-22 0.000E+00   -.664E-14 -.687E-14 -.217E-14
 -----------------------------------------------------------------------------------------------
   0.190E-12 0.187E-12 0.188E-12   0.334E-16 0.880E-15 -.507E-15   0.455E-23 -.397E-22 0.000E+00   0.300E-15 -.547E-14 -.656E-15
 
 
 POSITION                                       TOTAL-FORCE (eV/Angst)
 -----------------------------------------------------------------------------------
      0.00000      0.00000      0.00000         0.000000     -0.000000      0.000000
      1.40000      1.40000      1.40000        -0.000000      0.000000     -0.000000
 -----------------------------------------------------------------------------------
    total drift:                                0.000000      0.000000      0.000000


--------------------------------------------------------------------------------------------------------



  FREE ENERGIE OF THE ION-ELECTRON SYSTEM (eV)
  ---------------------------------------------------
  free  energy   TOTEN  =       -18.40218607 eV

  energy  without entropy=      -18.38730836  energy(sigma->0) =      -18.39722683
 


--------------------------------------------------------------------------------------------------------


    POTLOK:  cpu time    0.01: real time    0.01


--------------------------------------------------------------------------------------------------------


 writing wavefunctions
     LOOP+:  cpu time    1.16: real time    1.17
    4ORBIT:  cpu time    0.00: real time    0.00

volume of typ            1:    84.2 %
 
total charge     
 
# of ion     s       p       d       tot
----------------------------------------
  1        0.429   0.468   6.187   7.085
  2        0.429   0.468   6.187   7.085
------------------------------------------------
tot         0.86    0.94   12.37   14.17
 
magnetization (x)
 
# of ion     s       p       d       tot
----------------------------------------
  1       -0.000  -0.000   0.000  -0.000
  2       -0.000  -0.000   0.000   0.000
------------------------------------------------
tot        -0.00   -0.00    0.00    0.00
 
magnetization (y)
 
# of ion     s       p       d       tot
----------------------------------------
  1       -0.002  -0.034   2.147   2.111
  2       -0.002  -0.034   2.147   2.111
------------------------------------------------
tot        -0.00   -0.07    4.29    4.22
 
magnetization (z)
 
# of ion     s       p       d       tot
----------------------------------------
  1       -0.000  -0.000   0.000  -0.000
  2        0.000   0.000  -0.000   0.000
------------------------------------------------
tot         0.00   -0.00    0.00    0.00
 
orbital moment (x)
 
# of ion   s             p             d             tot
---------------------------------------------------------------
   1     0.000000E+00  0.527645E-08  0.314910E-08  0.842555E-08
   2     0.000000E+00 -0.444300E-08 -0.168950E-08 -0.613249E-08
----------------------------------------------------------------------------
tot      0.000000E+00  0.833455E-09  0.145960E-08  0.229306E-08
 
orbital moment (y)
 
# of ion   s             p             d             tot
---------------------------------------------------------------
   1     0.000000E+00 -0.317802E-08 -0.186300E-08 -0.504101E-08
   2     0.000000E+00  0.583208E-08  0.140651E-08  0.723859E-08
----------------------------------------------------------------------------
tot      0.000000E+00  0.265407E-08 -0.456488E-09  0.219758E-08
 
orbital moment (z)
 
# of ion   s             p             d             tot
---------------------------------------------------------------
   1     0.000000E+00 -0.244889E-08  0.267866E-08  0.229774E-09
   2     0.000000E+00  0.137719E-08  0.144738E-08  0.282457E-08
----------------------------------------------------------------------------
tot      0.000000E+00 -0.107170E-08  0.412605E-08  0.305435E-08
 
