 vasp.5.4.4.18Apr17-6-g9f103f2a35 (build Feb 19 2020 16:12:31) complex          
  
 executed on             LinuxIFC date 2020.09.13  23:48:28
 running on    1 total cores
 distrk:  each k-point on    1 cores,    1 groups
 distr:  one band on NCORES_PER_BAND=   1 cores,    1 groups


--------------------------------------------------------------------------------------------------------


 INCAR:
 POTCAR:    PAW_PBE H 15Jun2001                   
 POTCAR:    PAW_PBE O 08Apr2002                   
 POTCAR:    PAW_PBE H 15Jun2001                   
   VRHFIN =H: ultrasoft test                                                    
   LEXCH  = PE                                                                  
   EATOM  =    12.4884 eV,    0.9179 Ry                                         
                                                                                
   TITEL  = PAW_PBE H 15Jun2001                                                 
   LULTRA =        F    use ultrasoft PP ?                                      
   IUNSCR =        0    unscreen: 0-lin 1-nonlin 2-no                           
   RPACOR =    0.000    partial core radius                                     
   POMASS =    1.000; ZVAL   =    1.000    mass and valenz                      
   RCORE  =    1.100    outmost cutoff radius                                   
   RWIGS  =    0.700; RWIGS  =    0.370    wigner-seitz radius (au A)           
   ENMAX  =  250.000; ENMIN  =  200.000 eV                                      
   RCLOC  =    0.701    cutoff for local pot                                    
   LCOR   =        T    correct aug charges                                     
   LPAW   =        T    paw PP                                                  
   EAUG   =  400.000                                                            
   RMAX   =    1.123    core radius for proj-oper                               
   RAUG   =    1.200    factor for augmentation sphere                          
   RDEP   =    1.112    radius for radial grids                                 
   RDEPT  =    0.926    core radius for aug-charge                              
                                                                                
   Atomic configuration                                                         
    2 entries                                                                   
     n  l   j            E        occ.                                          
     1  0  0.50        -6.4927   1.0000                                         
     2  1  0.50        -3.4015   0.0000                                         
   Description                                                                  
     l       E           TYP  RCUT    TYP  RCUT                                 
     0     -6.4927494     23  1.100                                             
     0      6.8029130     23  1.100                                             
     1     -4.0817478     23  1.100                                             
  local pseudopotential read in
  atomic valenz-charges read in
  non local Contribution for L=           0  read in
    real space projection operators read in
  non local Contribution for L=           0  read in
    real space projection operators read in
  non local Contribution for L=           1  read in
    real space projection operators read in
    PAW grid and wavefunctions read in
 
   number of l-projection  operators is LMAX  =           3
   number of lm-projection operators is LMMAX =           5
 
 POTCAR:    PAW_PBE O 08Apr2002                   
   VRHFIN =O: s2p4                                                              
   LEXCH  = PE                                                                  
   EATOM  =   432.3788 eV,   31.7789 Ry                                         
                                                                                
   TITEL  = PAW_PBE O 08Apr2002                                                 
   LULTRA =        F    use ultrasoft PP ?                                      
   IUNSCR =        1    unscreen: 0-lin 1-nonlin 2-no                           
   RPACOR =    1.200    partial core radius                                     
   POMASS =   16.000; ZVAL   =    6.000    mass and valenz                      
   RCORE  =    1.520    outmost cutoff radius                                   
   RWIGS  =    1.550; RWIGS  =    0.820    wigner-seitz radius (au A)           
   ENMAX  =  400.000; ENMIN  =  300.000 eV                                      
   ICORE  =        2    local potential                                         
   LCOR   =        T    correct aug charges                                     
   LPAW   =        T    paw PP                                                  
   EAUG   =  605.392                                                            
   DEXC   =    0.000                                                            
   RMAX   =    1.553    core radius for proj-oper                               
   RAUG   =    1.300    factor for augmentation sphere                          
   RDEP   =    1.550    radius for radial grids                                 
   RDEPT  =    1.329    core radius for aug-charge                              
                                                                                
   Atomic configuration                                                         
    4 entries                                                                   
     n  l   j            E        occ.                                          
     1  0  0.50      -514.6923   2.0000                                         
     2  0  0.50       -23.9615   2.0000                                         
     2  1  0.50        -9.0305   4.0000                                         
     3  2  1.50        -9.5241   0.0000                                         
   Description                                                                  
     l       E           TYP  RCUT    TYP  RCUT                                 
     0    -23.9615318     23  1.200                                             
     0     -9.5240782     23  1.200                                             
     1     -9.0304911     23  1.520                                             
     1      8.1634956     23  1.520                                             
     2     -9.5240782      7  1.500                                             
  local pseudopotential read in
  partial core-charges read in
  partial kinetic energy density read in
  kinetic energy density of atom read in
  atomic valenz-charges read in
  non local Contribution for L=           0  read in
    real space projection operators read in
  non local Contribution for L=           0  read in
    real space projection operators read in
  non local Contribution for L=           1  read in
    real space projection operators read in
  non local Contribution for L=           1  read in
    real space projection operators read in
    PAW grid and wavefunctions read in
 
   number of l-projection  operators is LMAX  =           4
   number of lm-projection operators is LMMAX =           8
 
  PAW_PBE H 15Jun2001                   :
 energy of atom  1       EATOM=  -12.4884
 kinetic energy error for atom=    0.0020 (will be added to EATOM!!)
  PAW_PBE O 08Apr2002                   :
 energy of atom  2       EATOM= -432.3788
 kinetic energy error for atom=    0.0224 (will be added to EATOM!!)
 
 
 POSCAR: Poscar file generated with pyiron       
  positions in cartesian coordinates
  No initial velocities read in
 exchange correlation table for  LEXCH =        8
   RHO(1)=    0.500       N(1)  =     2000
   RHO(2)=  100.500       N(2)  =     4000
 


--------------------------------------------------------------------------------------------------------


 ion  position               nearest neighbor table
   1  0.570  0.570  0.500-   3 0.99
   2  0.430  0.570  0.500-   3 0.99
   3  0.500  0.500  0.500-   1 0.99   2 0.99
 
  LATTYP: Found a simple cubic cell.
 ALAT       =    10.0000000000
  
  Lattice vectors:
  
 A1 = (  10.0000000000,   0.0000000000,   0.0000000000)
 A2 = (   0.0000000000,  10.0000000000,   0.0000000000)
 A3 = (   0.0000000000,   0.0000000000,  10.0000000000)


Analysis of symmetry for initial positions (statically):
=====================================================================
 Subroutine PRICEL returns:
 Original cell was already a primitive cell.
 

 Routine SETGRP: Setting up the symmetry group for a 
 simple cubic supercell.


 Subroutine GETGRP returns: Found  4 space group operations
 (whereof  4 operations were pure point group operations)
 out of a pool of 48 trial point group operations.


The static configuration has the point symmetry C_2v.


Analysis of symmetry for dynamics (positions and initial velocities):
=====================================================================
 Subroutine PRICEL returns:
 Original cell was already a primitive cell.
 

 Routine SETGRP: Setting up the symmetry group for a 
 simple cubic supercell.


 Subroutine GETGRP returns: Found  4 space group operations
 (whereof  4 operations were pure point group operations)
 out of a pool of 48 trial point group operations.


The dynamic configuration has the point symmetry C_2v.


 Subroutine INISYM returns: Found  4 space group operations
 (whereof  4 operations are pure point group operations),
 and found     1 'primitive' translations

 
 
 KPOINTS: Kpoints file generated with pyiron      

Automatic generation of k-mesh.
Space group operators:
 irot       det(A)        alpha          n_x          n_y          n_z        tau_x        tau_y        tau_z
    1     1.000000     0.000000     1.000000     0.000000     0.000000     0.000000     0.000000     0.000000
    2    -1.000000   180.000000     0.000000     0.000000     1.000000     0.000000     0.000000     0.000000
    3    -1.000000   180.000000     1.000000     0.000000     0.000000     0.000000     0.000000     0.000000
    4     1.000000   180.000000     0.000000     1.000000     0.000000     0.000000     0.000000     0.000000
 
 Subroutine IBZKPT returns following result:
 ===========================================
 
 Found      1 irreducible k-points:
 
 Following reciprocal coordinates:
            Coordinates               Weight
  0.000000  0.000000  0.000000      1.000000
 
 Following cartesian coordinates:
            Coordinates               Weight
  0.000000  0.000000  0.000000      1.000000
 


--------------------------------------------------------------------------------------------------------




 Dimension of arrays:
   k-points           NKPTS =      1   k-points in BZ     NKDIM =      1   number of bands    NBANDS=      8
   number of dos      NEDOS =    301   number of ions     NIONS =      3
   non local maximal  LDIM  =      4   non local SUM 2l+1 LMDIM =      8
   total plane-waves  NPLWV = 512000
   max r-space proj   IRMAX =      1   max aug-charges    IRDMAX=   6841
   dimension x,y,z NGX =    80 NGY =   80 NGZ =   80
   dimension x,y,z NGXF=   160 NGYF=  160 NGZF=  160
   support grid    NGXF=   160 NGYF=  160 NGZF=  160
   ions per type =               2   1
   NGX,Y,Z   is equivalent  to a cutoff of  13.30, 13.30, 13.30 a.u.
   NGXF,Y,Z  is equivalent  to a cutoff of  26.60, 26.60, 26.60 a.u.

 SYSTEM =  water_minimize                          
 POSCAR =  Poscar file generated with pyiron       

 Startparameter for this run:
   NWRITE =      2    write-flag & timer
   PREC   = accura    normal or accurate (medium, high low for compatibility)
   ISTART =      0    job   : 0-new  1-cont  2-samecut
   ICHARG =      2    charge: 1-file 2-atom 10-const
   ISPIN  =      1    spin polarized calculation?
   LNONCOLLINEAR =      F non collinear calculations
   LSORBIT =      F    spin-orbit coupling
   INIWAV =      1    electr: 0-lowe 1-rand  2-diag
   LASPH  =      F    aspherical Exc in radial PAW
   METAGGA=      F    non-selfconsistent MetaGGA calc.

 Electronic Relaxation 1
   ENCUT  =  500.0 eV  36.75 Ry    6.06 a.u.  18.23 18.23 18.23*2*pi/ulx,y,z
   ENINI  =  500.0     initial cutoff
   ENAUG  =  605.4 eV  augmentation charge cutoff
   NELM   =      2;   NELMIN=  2; NELMDL= -5     # of ELM steps 
   EDIFF  = 0.1E-03   stopping-criterion for ELM
   LREAL  =      F    real-space projection
   NLSPLINE    = F    spline interpolate recip. space projectors
   LCOMPAT=      F    compatible to vasp.4.4
   GGA_COMPAT  = T    GGA compatible to vasp.4.4-vasp.4.6
   LMAXPAW     = -100 max onsite density
   LMAXMIX     =    2 max onsite mixed and CHGCAR
   VOSKOWN=      0    Vosko Wilk Nusair interpolation
   ROPT   =    0.00000   0.00000
 Ionic relaxation
   EDIFFG = 0.1E-02   stopping-criterion for IOM
   NSW    =      2    number of steps for IOM
   NBLOCK =      1;   KBLOCK =      2    inner block; outer block 
   IBRION =      2    ionic relax: 0-MD 1-quasi-New 2-CG
   NFREE  =      1    steps in history (QN), initial steepest desc. (CG)
   ISIF   =      2    stress and relaxation
   IWAVPR =     11    prediction:  0-non 1-charg 2-wave 3-comb
   ISYM   =      2    0-nonsym 1-usesym 2-fastsym
   LCORR  =      T    Harris-Foulkes like correction to forces

   POTIM  = 0.5000    time-step for ionic-motion
   TEIN   =    0.0    initial temperature
   TEBEG  =    0.0;   TEEND  =   0.0 temperature during run
   SMASS  =  -3.00    Nose mass-parameter (am)
   estimated Nose-frequenzy (Omega)   =  0.10E-29 period in steps =****** mass=  -0.229E-26a.u.
   SCALEE = 1.0000    scale energy and forces
   NPACO  =    256;   APACO  = 16.0  distance and # of slots for P.C.
   PSTRESS=    0.0 pullay stress

  Mass of Ions in am
   POMASS =   1.00 16.00
  Ionic Valenz
   ZVAL   =   1.00  6.00
  Atomic Wigner-Seitz radii
   RWIGS  =  -1.00 -1.00
  virtual crystal weights 
   VCA    =   1.00  1.00
   NELECT =       8.0000    total number of electrons
   NUPDOWN=      -1.0000    fix difference up-down

 DOS related values:
   EMIN   =  10.00;   EMAX   =-10.00  energy-range for DOS
   EFERMI =   0.00
   ISMEAR =    -1;   SIGMA  =   0.10  broadening in eV -4-tet -1-fermi 0-gaus

 Electronic relaxation 2 (details)
   IALGO  =     68    algorithm
   LDIAG  =      T    sub-space diagonalisation (order eigenvalues)
   LSUBROT=      F    optimize rotation matrix (better conditioning)
   TURBO    =      0    0=normal 1=particle mesh
   IRESTART =      0    0=no restart 2=restart with 2 vectors
   NREBOOT  =      0    no. of reboots
   NMIN     =      0    reboot dimension
   EREF     =   0.00    reference energy to select bands
   IMIX   =      4    mixing-type and parameters
     AMIX     =   0.40;   BMIX     =  1.00
     AMIX_MAG =   1.60;   BMIX_MAG =  1.00
     AMIN     =   0.10
     WC   =   100.;   INIMIX=   1;  MIXPRE=   1;  MAXMIX= -45

 Intra band minimization:
   WEIMIN = 0.0010     energy-eigenvalue tresh-hold
   EBREAK =  0.31E-05  absolut break condition
   DEPER  =   0.30     relativ break condition  

   TIME   =   0.40     timestep for ELM

  volume/ion in A,a.u.               =     333.33      2249.44
  Fermi-wavevector in a.u.,A,eV,Ry     =   0.327420  0.618734  1.458594  0.107204
  Thomas-Fermi vector in A             =   1.220131
 
 Write flags
   LWAVE        =      F    write WAVECAR
   LDOWNSAMPLE  =      F    k-point downsampling of WAVECAR
   LCHARG       =      T    write CHGCAR
   LVTOT        =      F    write LOCPOT, total local potential
   LVHAR        =      F    write LOCPOT, Hartree potential only
   LELF         =      F    write electronic localiz. function (ELF)
   LORBIT       =      0    0 simple, 1 ext, 2 COOP (PROOUT), +10 PAW based schemes


 Dipole corrections
   LMONO  =      F    monopole corrections only (constant potential shift)
   LDIPOL =      F    correct potential (dipole corrections)
   IDIPOL =      0    1-x, 2-y, 3-z, 4-all directions 
   EPSILON=  1.0000000 bulk dielectric constant

 Exchange correlation treatment:
   GGA     =    --    GGA type
   LEXCH   =     8    internal setting for exchange type
   VOSKOWN=      0    Vosko Wilk Nusair interpolation
   LHFCALC =     F    Hartree Fock is set to
   LHFONE  =     F    Hartree Fock one center treatment
   AEXX    =    0.0000 exact exchange contribution

 Linear response parameters
   LEPSILON=     F    determine dielectric tensor
   LRPA    =     F    only Hartree local field effects (RPA)
   LNABLA  =     F    use nabla operator in PAW spheres
   LVEL    =     F    velocity operator in full k-point grid
   LINTERFAST=   F  fast interpolation
   KINTER  =     0    interpolate to denser k-point grid
   CSHIFT  =0.1000    complex shift for real part using Kramers Kronig
   OMEGAMAX=  -1.0    maximum frequency
   DEG_THRESHOLD= 0.2000000E-02 threshold for treating states as degnerate
   RTIME   =   -0.100 relaxation time in fs
  (WPLASMAI=    0.000 imaginary part of plasma frequency in eV, 0.658/RTIME)
   DFIELD  = 0.0000000 0.0000000 0.0000000 field for delta impulse in time
 
 Orbital magnetization related:
   ORBITALMAG=     F  switch on orbital magnetization
   LCHIMAG   =     F  perturbation theory with respect to B field
   DQ        =  0.001000  dq finite difference perturbation B field
   LLRAUG    =     F  two centre corrections for induced B field



--------------------------------------------------------------------------------------------------------


 conjugate gradient relaxation of ions
 charge density and potential will be updated during run
 non-spin polarized calculation
 RMM-DIIS sequential band-by-band and
  variant of blocked Davidson during initial phase
 perform sub-space diagonalisation
    before iterative eigenvector-optimisation
 modified Broyden-mixing scheme, WC =      100.0
 initial mixing is a Kerker type mixing with AMIX =  0.4000 and BMIX =      1.0000
 Hartree-type preconditioning will be used
 using additional bands            4
 reciprocal scheme for non local part
 use partial core corrections
 calculate Harris-corrections to forces 
   (improved forces if not selfconsistent)
 use gradient corrections 
 use of overlap-Matrix (Vanderbilt PP)
 Fermi-smearing in eV        SIGMA  =   0.10


--------------------------------------------------------------------------------------------------------


  energy-cutoff  :      500.00
  volume of cell :     1000.00
      direct lattice vectors                 reciprocal lattice vectors
    10.000000000  0.000000000  0.000000000     0.100000000  0.000000000  0.000000000
     0.000000000 10.000000000  0.000000000     0.000000000  0.100000000  0.000000000
     0.000000000  0.000000000 10.000000000     0.000000000  0.000000000  0.100000000

  length of vectors
    10.000000000 10.000000000 10.000000000     0.100000000  0.100000000  0.100000000


 
 k-points in units of 2pi/SCALE and weight: Kpoints file generated with pyiron      
   0.00000000  0.00000000  0.00000000       1.000
 
 k-points in reciprocal lattice and weights: Kpoints file generated with pyiron      
   0.00000000  0.00000000  0.00000000       1.000
 
 position of ions in fractional coordinates (direct lattice) 
   0.57000000  0.57000000  0.50000000
   0.43000000  0.57000000  0.50000000
   0.50000000  0.50000000  0.50000000
 
 position of ions in cartesian coordinates  (Angst):
   5.70000000  5.70000000  5.00000000
   4.30000000  5.70000000  5.00000000
   5.00000000  5.00000000  5.00000000
 


--------------------------------------------------------------------------------------------------------


 k-point  1 :   0.0000 0.0000 0.0000  plane waves:   25413

 maximum and minimum number of plane-waves per node :     25413    25413

 maximum number of plane-waves:     25413
 maximum index in each direction: 
   IXMAX=   18   IYMAX=   18   IZMAX=   18
   IXMIN=  -18   IYMIN=  -18   IZMIN=  -18


 serial   3D FFT for wavefunctions
 parallel 3D FFT for charge:
    minimum data exchange during FFTs selected (reduces bandwidth)


 total amount of memory used by VASP MPI-rank0   430842. kBytes
=======================================================================

   base      :      30000. kBytes
   nonl-proj :       4472. kBytes
   fftplans  :     141100. kBytes
   grid      :     252006. kBytes
   one-center:          9. kBytes
   wavefun   :       3255. kBytes
 
     INWAV:  cpu time    0.0000: real time    0.0001
 Broyden mixing: mesh for mixing (old mesh)
   NGX = 37   NGY = 37   NGZ = 37
  (NGX  =160   NGY  =160   NGZ  =160)
  gives a total of  50653 points

 initial charge density was supplied:
 charge density of overlapping atoms calculated
 number of electron       8.0000000 magnetization 
 keeping initial charge density in first step


--------------------------------------------------------------------------------------------------------


 Maximum index for augmentation-charges         6451 (set IRDMAX)


--------------------------------------------------------------------------------------------------------


 First call to EWALD:  gamma=   0.177
 Maximum number of real-space cells 3x 3x 3
 Maximum number of reciprocal cells 3x 3x 3

    FEWALD:  cpu time    0.0009: real time    0.0009


--------------------------------------- Iteration      1(   1)  ---------------------------------------


    POTLOK:  cpu time    1.3762: real time    1.3779
    SETDIJ:  cpu time    0.0023: real time    0.0023
     EDDAV:  cpu time    0.3662: real time    0.3669
       DOS:  cpu time    0.0001: real time    0.0001
    --------------------------------------------
      LOOP:  cpu time    1.7447: real time    1.7472

 eigenvalue-minimisations  :    24
 total energy-change (2. order) : 0.6059211E+02  (-0.2156923E+03)
 number of electron       8.0000000 magnetization 
 augmentation part        8.0000000 magnetization 

 Free energy of the ion-electron system (eV)
  ---------------------------------------------------
  alpha Z        PSCENC =         0.22425129
  Ewald energy   TEWEN  =        54.51080601
  -Hartree energ DENC   =      -415.89841338
  -exchange      EXHF   =         0.00000000
  -V(xc)+E(xc)   XCENC  =        32.14293971
  PAW double counting   =       350.81753176     -352.63395800
  entropy T*S    EENTRO =        -0.00358062
  eigenvalues    EBANDS =       -65.89675787
  atomic energy  EATOM  =       457.32929435
  Solvation  Ediel_sol  =         0.00000000
  ---------------------------------------------------
  free energy    TOTEN  =        60.59211325 eV

  energy without entropy =       60.59569387  energy(sigma->0) =       60.59390356


--------------------------------------------------------------------------------------------------------




--------------------------------------- Iteration      1(   2)  ---------------------------------------


     EDDAV:  cpu time    0.4413: real time    0.4417
       DOS:  cpu time    0.0000: real time    0.0000
    --------------------------------------------
      LOOP:  cpu time    0.4413: real time    0.4417

 eigenvalue-minimisations  :    32
 total energy-change (2. order) :-0.6809059E+02  (-0.6807579E+02)
 number of electron       8.0000000 magnetization 
 augmentation part        8.0000000 magnetization 

 Free energy of the ion-electron system (eV)
  ---------------------------------------------------
  alpha Z        PSCENC =         0.22425129
  Ewald energy   TEWEN  =        54.51080601
  -Hartree energ DENC   =      -415.89841338
  -exchange      EXHF   =         0.00000000
  -V(xc)+E(xc)   XCENC  =        32.14293971
  PAW double counting   =       350.81753176     -352.63395800
  entropy T*S    EENTRO =        -0.00000000
  eigenvalues    EBANDS =      -133.99092462
  atomic energy  EATOM  =       457.32929435
  Solvation  Ediel_sol  =         0.00000000
  ---------------------------------------------------
  free energy    TOTEN  =        -7.49847288 eV

  energy without entropy =       -7.49847288  energy(sigma->0) =       -7.49847288


--------------------------------------------------------------------------------------------------------




 average (electrostatic) potential at core
  the test charge radii are     0.5201  0.7215
  (the norm of the test charge is              1.0000)
       1 -46.5393       2 -46.5393       3 -86.6376
 
 
 
 E-fermi :  -7.3532     XC(G=0):  -0.7138     alpha+bet : -0.1301


 k-point     1 :       0.0000    0.0000    0.0000
  band No.  band energies     occupation 
      1     -29.5717      2.00000
      2     -15.3041      2.00000
      3     -12.3419      2.00000
      4      -9.7778      2.00000
      5      -1.8327      0.00000
      6       0.1784      0.00000
      7       0.2277      0.00000
      8       0.8230      0.00000


--------------------------------------------------------------------------------------------------------


 soft charge-density along one line, spin component           1
         0         1         2         3         4         5         6         7         8         9
 total charge-density along one line
 
 pseudopotential strength for first ion, spin component:           1
 -2.422  -4.186   0.001  -0.000   0.001
 -4.186  -7.150   0.004  -0.000   0.005
  0.001   0.004  -0.332   0.000   0.005
 -0.000  -0.000   0.000  -0.337   0.000
  0.001   0.005   0.005   0.000  -0.332
 total augmentation occupancy for first ion, spin component:           1
  1.000   0.000   0.000   0.000   0.000
  0.000   0.000   0.000   0.000   0.000
  0.000   0.000   0.000   0.000   0.000
  0.000   0.000   0.000   0.000   0.000
  0.000   0.000   0.000   0.000   0.000


------------------------ aborting loop because EDIFF is reached ----------------------------------------


    CHARGE:  cpu time    0.1073: real time    0.1074
    FORLOC:  cpu time    0.1142: real time    0.1142
    FORNL :  cpu time    0.0212: real time    0.0212
    STRESS:  cpu time    0.1776: real time    0.1779
    FORCOR:  cpu time    1.3716: real time    1.3727
    FORHAR:  cpu time    0.4007: real time    0.4012
    MIXING:  cpu time    0.0516: real time    0.0516
    OFIELD:  cpu time    0.0000: real time    0.0000

  FORCE on cell =-STRESS in cart. coord.  units (eV):
  Direction    XX          YY          ZZ          XY          YZ          ZX
  --------------------------------------------------------------------------------------
  Alpha Z     0.22425     0.22425     0.22425
  Ewald      54.36487    43.93307   -43.78717     0.00000    -0.00000     0.00000
  Hartree   141.10189   142.65590   130.55422    -0.00000    -0.00000    -0.00000
  E(xc)     -33.96866   -34.02377   -34.51095     0.00000    -0.00000     0.00000
  Local    -280.44800  -274.81961  -200.23934    -0.00000     0.00000    -0.00000
  n-local   -31.09760   -32.04643   -31.97744    -0.21019    -0.27889     0.19312
  augment     5.33672     5.12796     5.92133     0.00000    -0.00000    -0.00000
  Kinetic   136.26038   132.57776   149.01900     0.98624     1.36289    -0.80796
  Fock        0.00000     0.00000     0.00000     0.00000     0.00000     0.00000
  -------------------------------------------------------------------------------------
  Total      -8.22615   -16.37087   -24.79610     0.00000     0.00000     0.00000
  in kB     -13.17976   -26.22903   -39.72774     0.00000     0.00000     0.00000
  external pressure =      -26.38 kB  Pullay stress =        0.00 kB


 VOLUME and BASIS-vectors are now :
 -----------------------------------------------------------------------------
  energy-cutoff  :      500.00
  volume of cell :     1000.00
      direct lattice vectors                 reciprocal lattice vectors
    10.000000000  0.000000000  0.000000000     0.100000000  0.000000000  0.000000000
     0.000000000 10.000000000  0.000000000     0.000000000  0.100000000  0.000000000
     0.000000000  0.000000000 10.000000000     0.000000000  0.000000000  0.100000000

  length of vectors
    10.000000000 10.000000000 10.000000000     0.100000000  0.100000000  0.100000000


 FORCES acting on ions
    electron-ion (+dipol)            ewald-force                    non-local-force                 convergence-correction
 -----------------------------------------------------------------------------------------------
   -.613E+02 -.569E+02 0.323E-07   0.693E+02 0.621E+02 -.204E-17   -.540E+01 -.538E+01 0.000E+00   0.668E-01 0.130E+01 0.591E-13
   0.613E+02 -.569E+02 -.895E-08   -.693E+02 0.621E+02 -.173E-17   0.540E+01 -.538E+01 0.000E+00   -.668E-01 0.130E+01 0.390E-13
   0.237E-12 0.706E+02 -.133E-11   -.142E-13 -.124E+03 -.302E-16   0.000E+00 0.356E+02 0.000E+00   -.960E-13 0.113E+02 0.654E-12
 -----------------------------------------------------------------------------------------------
   0.123E-12 -.433E+02 0.234E-07   0.514E-16 0.000E+00 -.340E-16   0.888E-15 0.249E+02 0.000E+00   -.102E-12 0.139E+02 0.752E-12
 
 
 POSITION                                       TOTAL-FORCE (eV/Angst)
 -----------------------------------------------------------------------------------
      5.70000      5.70000      5.00000         2.733339      2.569604      0.000000
      4.30000      5.70000      5.00000        -2.733339      2.569604      0.000000
      5.00000      5.00000      5.00000         0.000000     -5.139209      0.000000
 -----------------------------------------------------------------------------------
    total drift:                                0.000000     -4.507146      0.000000


--------------------------------------------------------------------------------------------------------



  FREE ENERGIE OF THE ION-ELECTRON SYSTEM (eV)
  ---------------------------------------------------
  free  energy   TOTEN  =        -7.49847288 eV

  energy  without entropy=       -7.49847288  energy(sigma->0) =       -7.49847288
 


--------------------------------------------------------------------------------------------------------


    POTLOK:  cpu time    1.2667: real time    1.2679


--------------------------------------------------------------------------------------------------------




--------------------------------------------------------------------------------------------------------


    WAVPRE:  cpu time    3.4150: real time    3.4313
    FEWALD:  cpu time    0.0001: real time    0.0001
    ORTHCH:  cpu time    0.0078: real time    0.0081
     LOOP+:  cpu time    9.1235: real time    9.1464


--------------------------------------- Iteration      2(   1)  ---------------------------------------


    POTLOK:  cpu time    1.2282: real time    1.2293
    SETDIJ:  cpu time    0.0025: real time    0.0025
     EDDAV:  cpu time    0.2646: real time    0.2649
       DOS:  cpu time    0.0000: real time    0.0000
    CHARGE:  cpu time    0.1050: real time    0.1053
    MIXING:  cpu time    0.0458: real time    0.0458
    --------------------------------------------
      LOOP:  cpu time    1.6461: real time    1.6477

 eigenvalue-minimisations  :    16
 total energy-change (2. order) :-0.7121502E+02  (-0.3760230E+02)
 number of electron       8.0000001 magnetization 
 augmentation part        0.6626082 magnetization 

 Broyden mixing:
  rms(total) = 0.41053E+00    rms(broyden)= 0.40867E+00
  rms(prec ) = 0.58115E+00
  weight for this iteration     100.00

 Free energy of the ion-electron system (eV)
  ---------------------------------------------------
  alpha Z        PSCENC =         0.22425129
  Ewald energy   TEWEN  =         6.01934010
  -Hartree energ DENC   =      -386.70301725
  -exchange      EXHF   =         0.00000000
  -V(xc)+E(xc)   XCENC  =        30.91005744
  PAW double counting   =       401.47262605     -403.08487430
  entropy T*S    EENTRO =        -0.00000000
  eigenvalues    EBANDS =      -116.79058056
  atomic energy  EATOM  =       457.32929435
  Solvation  Ediel_sol  =         0.00000000
  ---------------------------------------------------
  free energy    TOTEN  =       -10.62290289 eV

  energy without entropy =      -10.62290289  energy(sigma->0) =      -10.62290289


--------------------------------------------------------------------------------------------------------




--------------------------------------- Iteration      2(   2)  ---------------------------------------


    POTLOK:  cpu time    1.2493: real time    1.2497
    SETDIJ:  cpu time    0.0023: real time    0.0023
    EDDIAG:  cpu time    0.0587: real time    0.0588
  RMM-DIIS:  cpu time    0.2870: real time    0.2875
    ORTHCH:  cpu time    0.0018: real time    0.0018
       DOS:  cpu time    0.0000: real time    0.0000
    --------------------------------------------
      LOOP:  cpu time    1.5991: real time    1.6002

 eigenvalue-minimisations  :    16
 total energy-change (2. order) :-0.2987297E+00  (-0.9368272E+00)
 number of electron       8.0000001 magnetization 
 augmentation part        0.6626082 magnetization 

 Free energy of the ion-electron system (eV)
  ---------------------------------------------------
  alpha Z        PSCENC =         0.22425129
  Ewald energy   TEWEN  =         6.01934010
  -Hartree energ DENC   =      -398.02577179
  -exchange      EXHF   =         0.00000000
  -V(xc)+E(xc)   XCENC  =        31.49328542
  PAW double counting   =       443.54598059     -445.42249579
  entropy T*S    EENTRO =        -0.00000000
  eigenvalues    EBANDS =      -106.08551671
  atomic energy  EATOM  =       457.32929435
  Solvation  Ediel_sol  =         0.00000000
  ---------------------------------------------------
  free energy    TOTEN  =       -10.92163254 eV

  energy without entropy =      -10.92163254  energy(sigma->0) =      -10.92163254


--------------------------------------------------------------------------------------------------------




 average (electrostatic) potential at core
  the test charge radii are     0.5201  0.7215
  (the norm of the test charge is              1.0000)
       1 -43.7839       2 -43.7839       3 -82.1411
 
 
 
 E-fermi :  -5.7586     XC(G=0):  -0.9201     alpha+bet : -0.1301


 k-point     1 :       0.0000    0.0000    0.0000
  band No.  band energies     occupation 
      1     -23.8585      2.00000
      2     -10.9537      2.00000
      3     -10.2858      2.00000
      4      -7.9449      2.00000
      5      -3.5781      0.00000
      6      -2.0729      0.00000
      7      -0.5618      0.00000
      8       0.5802      0.00000


--------------------------------------------------------------------------------------------------------


 soft charge-density along one line, spin component           1
         0         1         2         3         4         5         6         7         8         9
 total charge-density along one line
 
 pseudopotential strength for first ion, spin component:           1
 -2.384  -4.114   0.001  -0.000   0.001
 -4.114  -7.014   0.002  -0.000   0.002
  0.001   0.002  -0.337   0.000   0.000
 -0.000  -0.000   0.000  -0.338   0.000
  0.001   0.002   0.000   0.000  -0.337
 total augmentation occupancy for first ion, spin component:           1
  1.725  -0.306  -0.147   0.000  -0.128
 -0.306   0.069   0.030   0.000   0.026
 -0.147   0.030   0.015   0.000   0.009
  0.000   0.000   0.000   0.006   0.000
 -0.128   0.026   0.009   0.000   0.014


------------------------ aborting loop because EDIFF is reached ----------------------------------------


    CHARGE:  cpu time    0.1117: real time    0.1117
    FORLOC:  cpu time    0.1151: real time    0.1154
    FORNL :  cpu time    0.0215: real time    0.0215
    STRESS:  cpu time    0.1788: real time    0.1788
    FORCOR:  cpu time    1.3666: real time    1.3677
    FORHAR:  cpu time    0.3767: real time    0.3770
    MIXING:  cpu time    0.0471: real time    0.0471
    OFIELD:  cpu time    0.0000: real time    0.0000

  FORCE on cell =-STRESS in cart. coord.  units (eV):
  Direction    XX          YY          ZZ          XY          YZ          ZX
  --------------------------------------------------------------------------------------
  Alpha Z     0.22425     0.22425     0.22425
  Ewald      13.40289    36.56393   -43.94752     0.00000     0.00000     0.00000
  Hartree   140.74529   148.69320   126.80480    -0.00000    -0.00000    -0.00000
  E(xc)     -33.49207   -33.34888   -33.80022    -0.00000    -0.00000     0.00000
  Local    -241.24928  -268.01965  -188.23824     0.00000     0.00000    -0.00000
  n-local   -24.86822   -24.42225   -28.39976    -0.01961    -0.00936     0.00749
  augment     6.02801     5.45650     7.92443     0.00000     0.00000    -0.00000
  Kinetic   138.69415   128.89909   162.45862     0.10072     0.04196    -0.03897
  Fock        0.00000     0.00000     0.00000     0.00000     0.00000     0.00000
  -------------------------------------------------------------------------------------
  Total      -0.51498    -5.95380     3.02638     0.00000     0.00000     0.00000
  in kB      -0.82508    -9.53905     4.84880     0.00000     0.00000     0.00000
  external pressure =       -1.84 kB  Pullay stress =        0.00 kB


 VOLUME and BASIS-vectors are now :
 -----------------------------------------------------------------------------
  energy-cutoff  :      500.00
  volume of cell :     1000.00
      direct lattice vectors                 reciprocal lattice vectors
    10.000000000  0.000000000  0.000000000     0.100000000  0.000000000  0.000000000
     0.000000000 10.000000000  0.000000000     0.000000000  0.100000000  0.000000000
     0.000000000  0.000000000 10.000000000     0.000000000  0.000000000  0.100000000

  length of vectors
    10.000000000 10.000000000 10.000000000     0.100000000  0.100000000  0.100000000


 FORCES acting on ions
    electron-ion (+dipol)            ewald-force                    non-local-force                 convergence-correction
 -----------------------------------------------------------------------------------------------
   -.353E+02 -.403E+02 0.257E-07   0.336E+02 0.367E+02 -.320E-17   -.154E+01 -.187E+01 0.000E+00   0.523E+00 0.874E+00 0.185E-13
   0.353E+02 -.403E+02 -.106E-07   -.336E+02 0.367E+02 -.495E-17   0.154E+01 -.187E+01 0.000E+00   -.523E+00 0.874E+00 -.179E-13
   0.247E-12 0.468E+02 0.868E-08   0.107E-13 -.734E+02 -.258E-16   0.000E+00 0.354E+02 0.000E+00   -.792E-13 0.144E+01 0.247E-12
 -----------------------------------------------------------------------------------------------
   0.332E-12 -.339E+02 0.238E-07   -.350E-14 0.000E+00 -.340E-16   -.222E-15 0.317E+02 0.000E+00   -.890E-13 0.318E+01 0.247E-12
 
 
 POSITION                                       TOTAL-FORCE (eV/Angst)
 -----------------------------------------------------------------------------------
      5.83186      5.82396      5.00000        -2.760336     -4.981455      0.000000
      4.16814      5.82396      5.00000         2.760336     -4.981455      0.000000
      5.00000      4.75207      5.00000         0.000000      9.962910      0.000000
 -----------------------------------------------------------------------------------
    total drift:                                0.000000      0.974108      0.000000


--------------------------------------------------------------------------------------------------------



  FREE ENERGIE OF THE ION-ELECTRON SYSTEM (eV)
  ---------------------------------------------------
  free  energy   TOTEN  =       -10.92163254 eV

  energy  without entropy=      -10.92163254  energy(sigma->0) =      -10.92163254
 
 d Force =-0.9005117E+00[-0.443E+01, 0.263E+01]  d Energy = 0.3423160E+01-0.432E+01
 d Force = 0.5030559E+02[ 0.361E+02, 0.645E+02]  d Ewald  = 0.4849147E+02 0.181E+01


--------------------------------------------------------------------------------------------------------


    POTLOK:  cpu time    1.2591: real time    1.2598


--------------------------------------------------------------------------------------------------------


 Steepest descent step on ions:
 trial-energy change:   -3.423160  1 .order    0.900512   -2.632095    4.433118
  (g-gl).g = 0.263E+01      g.g   = 0.263E+01  gl.gl    = 0.000E+00
 g(Force)  = 0.263E+01   g(Stress)= 0.000E+00 ortho     = 0.000E+00
 gamma     =   0.00000
 trial     =   1.00000
 opt step  =   0.37254  (harmonic =   0.37254) maximal distance =0.04912482
 next E    =    -7.988757   (d E  =  -0.49028)


--------------------------------------------------------------------------------------------------------


     LOOP+:  cpu time    6.7261: real time    6.7318
    4ORBIT:  cpu time    0.0000: real time    0.0000

 total amount of memory used by VASP MPI-rank0   430842. kBytes
=======================================================================

   base      :      30000. kBytes
   nonl-proj :       4472. kBytes
   fftplans  :     141100. kBytes
   grid      :     252006. kBytes
   one-center:          9. kBytes
   wavefun   :       3255. kBytes
 
  
  
 General timing and accounting informations for this job:
 ========================================================
  
                  Total CPU time used (sec):       20.894
                            User time (sec):       20.347
                          System time (sec):        0.548
                         Elapsed time (sec):       21.060
  
                   Maximum memory used (kb):      787952.
                   Average memory used (kb):           0.
  
                          Minor page faults:        55436
                          Major page faults:            0
                 Voluntary context switches:          970
