 vasp.5.4.1 24Jun15 (build Apr 15 2016 18:00:36) complex                        
  
 executed on           IFC91_ompi date 2016.12.05  07:52:36
 serial version


--------------------------------------------------------------------------------------------------------


 INCAR:
 POTCAR:   PAW Ni 03Mar1998                       
 POTCAR:   PAW Ni 03Mar1998                       
   VRHFIN =Ni:                                                                  
   LEXCH  = CA                                                                  
   EATOM  =  1081.8021 eV,   79.5102 Ry                                         
                                                                                
   TITEL  = PAW Ni 03Mar1998                                                    
   LULTRA =        F    use ultrasoft PP ?                                      
   IUNSCR =        1    unscreen: 0-lin 1-nonlin 2-no                           
   RPACOR =    2.000    partial core radius                                     
   POMASS =   58.690; ZVAL   =   10.000    mass and valenz                      
   RCORE  =    2.300    outmost cutoff radius                                   
   RWIGS  =    2.430; RWIGS  =    1.286    wigner-seitz radius (au A)           
   ENMAX  =  269.618; ENMIN  =  202.214 eV                                      
   RCLOC  =    1.681    cutoff for local pot                                    
   LCOR   =        T    correct aug charges                                     
   LPAW   =        T    paw PP                                                  
   EAUG   =  544.565                                                            
   DEXC   =    -.007                                                            
   RMAX   =    2.808    core radius for proj-oper                               
   RAUG   =    1.300    factor for augmentation sphere                          
   RDEP   =    2.390    core radius for depl-charge                             
   QCUT   =   -4.452; QGAM   =    8.903    optimization parameters              
                                                                                
   Description                                                                  
     l     E      TYP  RCUT    TYP  RCUT                                        
     2   .000     23  2.300                                                     
     2   .000     23  2.300                                                     
     0   .000     23  2.300                                                     
     0   .000     23  2.300                                                     
     1  -.200     23  2.300                                                     
     1   .000     23  2.300                                                     
     3   .000      7   .000                                                     
  local pseudopotential read in
  partial core-charges read in
  atomic valenz-charges read in
  non local Contribution for L=           2  read in
    real space projection operators read in
  non local Contribution for L=           2  read in
    real space projection operators read in
  non local Contribution for L=           0  read in
    real space projection operators read in
  non local Contribution for L=           0  read in
    real space projection operators read in
  non local Contribution for L=           1  read in
    real space projection operators read in
  non local Contribution for L=           1  read in
    real space projection operators read in
    PAW grid and wavefunctions read in
 
   number of l-projection  operators is LMAX  =           6
   number of lm-projection operators is LMMAX =          18
 
 PAW Ni 03Mar1998                       :
 energy of atom  1       EATOM=-1081.8021
 kinetic energy error for atom=    0.0774 (will be added to EATOM!!)
 
 
 POSCAR: Poscar file generated with pyCMW        
  positions in direct lattice
  No initial velocities read in
 exchange correlation table for  LEXCH =        2
   RHO(1)=    0.500       N(1)  =     2000
   RHO(2)=  100.500       N(2)  =     4000
 


--------------------------------------------------------------------------------------------------------


 ion  position               nearest neighbor table
   1  0.000  0.000  0.000-   2 2.62   3 2.62   4 2.62   3 2.62   4 2.62   2 2.62   4 2.62   4 2.62
                             2 2.62   3 2.62   3 2.62   2 2.62
   2  0.500  0.500  0.000-   1 2.62   3 2.62   4 2.62   3 2.62   4 2.62   1 2.62   3 2.62   3 2.62
                             1 2.62   4 2.62   4 2.62   1 2.62
   3  0.500  0.000  0.500-   1 2.62   2 2.62   4 2.62   1 2.62   2 2.62   2 2.62   4 2.62   2 2.62
                             1 2.62   4 2.62   1 2.62   4 2.62
   4  0.000  0.500  0.500-   1 2.62   2 2.62   3 2.62   1 2.62   2 2.62   1 2.62   3 2.62   1 2.62
                             2 2.62   3 2.62   2 2.62   3 2.62
 
  LATTYP: Found a simple cubic cell.
 ALAT       =     3.7000000000
  
  Lattice vectors:
  
 A1 = (   3.7000000000,   0.0000000000,   0.0000000000)
 A2 = (   0.0000000000,   3.7000000000,   0.0000000000)
 A3 = (   0.0000000000,   0.0000000000,   3.7000000000)


Analysis of symmetry for initial positions (statically):
=====================================================================
 Subroutine PRICEL returns following result:
 
  LATTYP: Found a face centered cubic cell.
 ALAT       =     3.7000000000
  
  Lattice vectors:
  
 A1 = (   1.8500000000,   1.8500000000,  -0.0000000000)
 A2 = (   1.8500000000,   0.0000000000,  -1.8500000000)
 A3 = (   0.0000000000,   1.8500000000,  -1.8500000000)
 
   4 primitive cells build up your supercell.
 

 Routine SETGRP: Setting up the symmetry group for a 
 simple cubic supercell.


 Subroutine GETGRP returns: Found 48 space group operations
 (whereof 48 operations were pure point group operations)
 out of a pool of 48 trial point group operations.


The static configuration has the point symmetry O_h .


Analysis of symmetry for dynamics (positions and initial velocities):
=====================================================================
 Subroutine PRICEL returns following result:
 
  LATTYP: Found a face centered cubic cell.
 ALAT       =     3.7000000000
  
  Lattice vectors:
  
 A1 = (   1.8500000000,   1.8500000000,  -0.0000000000)
 A2 = (   1.8500000000,   0.0000000000,  -1.8500000000)
 A3 = (   0.0000000000,   1.8500000000,  -1.8500000000)
 
   4 primitive cells build up your supercell.
 

 Routine SETGRP: Setting up the symmetry group for a 
 simple cubic supercell.


 Subroutine GETGRP returns: Found 48 space group operations
 (whereof 48 operations were pure point group operations)
 out of a pool of 48 trial point group operations.


The dynamic configuration has the point symmetry O_h .


 Subroutine INISYM returns: Found 48 space group operations
 (whereof 48 operations are pure point group operations),
 and found     4 'primitive' translations

 
 
 KPOINTS: Kpoints file generated with pyCMW       

Automatic generation of k-mesh.
Space group operators:
 irot       det(A)        alpha          n_x          n_y          n_z        tau_x        tau_y        tau_z
    1     1.000000     0.000000     1.000000     0.000000     0.000000     0.000000     0.000000     0.000000
    2    -1.000000     0.000000     1.000000     0.000000     0.000000     0.000000     0.000000     0.000000
    3     1.000000   120.000000    -0.577350    -0.577350    -0.577350     0.000000     0.000000     0.000000
    4    -1.000000   120.000000    -0.577350    -0.577350    -0.577350     0.000000     0.000000     0.000000
    5     1.000000   120.000000     0.577350     0.577350     0.577350     0.000000     0.000000     0.000000
    6    -1.000000   120.000000     0.577350     0.577350     0.577350     0.000000     0.000000     0.000000
    7     1.000000    90.000000     0.000000     0.000000    -1.000000     0.000000     0.000000     0.000000
    8    -1.000000    90.000000     0.000000     0.000000    -1.000000     0.000000     0.000000     0.000000
    9     1.000000   180.000000     0.000000     0.707107     0.707107     0.000000     0.000000     0.000000
   10    -1.000000   180.000000     0.000000     0.707107     0.707107     0.000000     0.000000     0.000000
   11     1.000000    90.000000     0.000000     1.000000     0.000000     0.000000     0.000000     0.000000
   12    -1.000000    90.000000     0.000000     1.000000     0.000000     0.000000     0.000000     0.000000
   13     1.000000   180.000000     0.000000     0.000000     1.000000     0.000000     0.000000     0.000000
   14    -1.000000   180.000000     0.000000     0.000000     1.000000     0.000000     0.000000     0.000000
   15     1.000000   120.000000    -0.577350     0.577350     0.577350     0.000000     0.000000     0.000000
   16    -1.000000   120.000000    -0.577350     0.577350     0.577350     0.000000     0.000000     0.000000
   17     1.000000   120.000000    -0.577350     0.577350    -0.577350     0.000000     0.000000     0.000000
   18    -1.000000   120.000000    -0.577350     0.577350    -0.577350     0.000000     0.000000     0.000000
   19     1.000000    90.000000     0.000000     0.000000     1.000000     0.000000     0.000000     0.000000
   20    -1.000000    90.000000     0.000000     0.000000     1.000000     0.000000     0.000000     0.000000
   21     1.000000    90.000000    -1.000000     0.000000     0.000000     0.000000     0.000000     0.000000
   22    -1.000000    90.000000    -1.000000     0.000000     0.000000     0.000000     0.000000     0.000000
   23     1.000000   180.000000     0.707107     0.000000     0.707107     0.000000     0.000000     0.000000
   24    -1.000000   180.000000     0.707107     0.000000     0.707107     0.000000     0.000000     0.000000
   25     1.000000   120.000000     0.577350    -0.577350     0.577350     0.000000     0.000000     0.000000
   26    -1.000000   120.000000     0.577350    -0.577350     0.577350     0.000000     0.000000     0.000000
   27     1.000000   120.000000    -0.577350    -0.577350     0.577350     0.000000     0.000000     0.000000
   28    -1.000000   120.000000    -0.577350    -0.577350     0.577350     0.000000     0.000000     0.000000
   29     1.000000   180.000000     1.000000     0.000000     0.000000     0.000000     0.000000     0.000000
   30    -1.000000   180.000000     1.000000     0.000000     0.000000     0.000000     0.000000     0.000000
   31     1.000000    90.000000     0.000000    -1.000000     0.000000     0.000000     0.000000     0.000000
   32    -1.000000    90.000000     0.000000    -1.000000     0.000000     0.000000     0.000000     0.000000
   33     1.000000   180.000000     0.707107     0.707107     0.000000     0.000000     0.000000     0.000000
   34    -1.000000   180.000000     0.707107     0.707107     0.000000     0.000000     0.000000     0.000000
   35     1.000000    90.000000     1.000000     0.000000     0.000000     0.000000     0.000000     0.000000
   36    -1.000000    90.000000     1.000000     0.000000     0.000000     0.000000     0.000000     0.000000
   37     1.000000   120.000000     0.577350    -0.577350    -0.577350     0.000000     0.000000     0.000000
   38    -1.000000   120.000000     0.577350    -0.577350    -0.577350     0.000000     0.000000     0.000000
   39     1.000000   180.000000     0.000000     1.000000     0.000000     0.000000     0.000000     0.000000
   40    -1.000000   180.000000     0.000000     1.000000     0.000000     0.000000     0.000000     0.000000
   41     1.000000   120.000000     0.577350     0.577350    -0.577350     0.000000     0.000000     0.000000
   42    -1.000000   120.000000     0.577350     0.577350    -0.577350     0.000000     0.000000     0.000000
   43     1.000000   180.000000     0.000000    -0.707107     0.707107     0.000000     0.000000     0.000000
   44    -1.000000   180.000000     0.000000    -0.707107     0.707107     0.000000     0.000000     0.000000
   45     1.000000   180.000000     0.707107    -0.707107     0.000000     0.000000     0.000000     0.000000
   46    -1.000000   180.000000     0.707107    -0.707107     0.000000     0.000000     0.000000     0.000000
   47     1.000000   180.000000     0.707107     0.000000    -0.707107     0.000000     0.000000     0.000000
   48    -1.000000   180.000000     0.707107     0.000000    -0.707107     0.000000     0.000000     0.000000
 
 Subroutine IBZKPT returns following result:
 ===========================================
 
 Found      4 irreducible k-points:
 
 Following reciprocal coordinates:
            Coordinates               Weight
  0.125000  0.125000  0.125000      8.000000
  0.375000  0.125000  0.125000     24.000000
  0.375000  0.375000  0.125000     24.000000
  0.375000  0.375000  0.375000      8.000000
 
 Following cartesian coordinates:
            Coordinates               Weight
  0.033784  0.033784  0.033784      8.000000
  0.101351  0.033784  0.033784     24.000000
  0.101351  0.101351  0.033784     24.000000
  0.101351  0.101351  0.101351      8.000000
 


--------------------------------------------------------------------------------------------------------




 Dimension of arrays:
   k-points           NKPTS =      4   k-points in BZ     NKDIM =      4   number of bands    NBANDS=     24
   number of dos      NEDOS =    301   number of ions     NIONS =      4
   non local maximal  LDIM  =      6   non local SUM 2l+1 LMDIM =     18
   total plane-waves  NPLWV =   8000
   max r-space proj   IRMAX =      1   max aug-charges    IRDMAX=   5318
   dimension x,y,z NGX =    20 NGY =   20 NGZ =   20
   dimension x,y,z NGXF=    40 NGYF=   40 NGZF=   40
   support grid    NGXF=    40 NGYF=   40 NGZF=   40
   ions per type =               4
 NGX,Y,Z   is equivalent  to a cutoff of   8.99,  8.99,  8.99 a.u.
 NGXF,Y,Z  is equivalent  to a cutoff of  17.97, 17.97, 17.97 a.u.


 I would recommend the setting:
   dimension x,y,z NGX =    19 NGY =   19 NGZ =   19
 SYSTEM =  ToDo                                    
 POSCAR =  Poscar file generated with pyCMW        

 Startparameter for this run:
   NWRITE =      2    write-flag & timer
   PREC   = accura    normal or accurate (medium, high low for compatibility)
   ISTART =      0    job   : 0-new  1-cont  2-samecut
   ICHARG =      2    charge: 1-file 2-atom 10-const
   ISPIN  =      1    spin polarized calculation?
   LNONCOLLINEAR =      F non collinear calculations
   LSORBIT =      F    spin-orbit coupling
   INIWAV =      1    electr: 0-lowe 1-rand  2-diag
   LASPH  =      F    aspherical Exc in radial PAW
   METAGGA=      F    non-selfconsistent MetaGGA calc.

 Electronic Relaxation 1
   ENCUT  =  250.0 eV  18.37 Ry    4.29 a.u.   4.77  4.77  4.77*2*pi/ulx,y,z
   ENINI  =  250.0     initial cutoff
   ENAUG  =  544.6 eV  augmentation charge cutoff
   NELM   =     60;   NELMIN=  2; NELMDL= -5     # of ELM steps 
   EDIFF  = 0.1E-03   stopping-criterion for ELM
   LREAL  =      F    real-space projection
   NLSPLINE    = F    spline interpolate recip. space projectors
   LCOMPAT=      F    compatible to vasp.4.4
   GGA_COMPAT  = T    GGA compatible to vasp.4.4-vasp.4.6
   LMAXPAW     = -100 max onsite density
   LMAXMIX     =    2 max onsite mixed and CHGCAR
   VOSKOWN=      0    Vosko Wilk Nusair interpolation
   ROPT   =    0.00000
 Ionic relaxation
   EDIFFG = 0.1E-02   stopping-criterion for IOM
   NSW    =      0    number of steps for IOM
   NBLOCK =      1;   KBLOCK =      1    inner block; outer block 
   IBRION =     -1    ionic relax: 0-MD 1-quasi-New 2-CG
   NFREE  =      0    steps in history (QN), initial steepest desc. (CG)
   ISIF   =      2    stress and relaxation
   IWAVPR =      0    prediction:  0-non 1-charg 2-wave 3-comb
   ISYM   =      2    0-nonsym 1-usesym 2-fastsym
   LCORR  =      T    Harris-Foulkes like correction to forces

   POTIM  = 0.5000    time-step for ionic-motion
   TEIN   =    0.0    initial temperature
   TEBEG  =    0.0;   TEEND  =   0.0 temperature during run
   SMASS  =  -3.00    Nose mass-parameter (am)
   estimated Nose-frequenzy (Omega)   =  0.10E-29 period in steps =****** mass=  -0.313E-27a.u.
   SCALEE = 1.0000    scale energy and forces
   NPACO  =    256;   APACO  = 16.0  distance and # of slots for P.C.
   PSTRESS=    0.0 pullay stress

  Mass of Ions in am
   POMASS =  58.69
  Ionic Valenz
   ZVAL   =  10.00
  Atomic Wigner-Seitz radii
   RWIGS  =  -1.00
  virtual crystal weights 
   VCA    =   1.00
   NELECT =      40.0000    total number of electrons
   NUPDOWN=      -1.0000    fix difference up-down

 DOS related values:
   EMIN   =  10.00;   EMAX   =-10.00  energy-range for DOS
   EFERMI =   0.00
   ISMEAR =     1;   SIGMA  =   0.20  broadening in eV -4-tet -1-fermi 0-gaus

 Electronic relaxation 2 (details)
   IALGO  =     68    algorithm
   LDIAG  =      T    sub-space diagonalisation (order eigenvalues)
   LSUBROT=      F    optimize rotation matrix (better conditioning)
   TURBO    =      0    0=normal 1=particle mesh
   IRESTART =      0    0=no restart 2=restart with 2 vectors
   NREBOOT  =      0    no. of reboots
   NMIN     =      0    reboot dimension
   EREF     =   0.00    reference energy to select bands
   IMIX   =      4    mixing-type and parameters
     AMIX     =   0.40;   BMIX     =  1.00
     AMIX_MAG =   1.60;   BMIX_MAG =  1.00
     AMIN     =   0.10
     WC   =   100.;   INIMIX=   1;  MIXPRE=   1;  MAXMIX= -45

 Intra band minimization:
   WEIMIN = 0.0000     energy-eigenvalue tresh-hold
   EBREAK =  0.10E-05  absolut break condition
   DEPER  =   0.30     relativ break condition  

   TIME   =   0.40     timestep for ELM

  volume/ion in A,a.u.               =      12.66        85.46
  Fermi-wavevector in a.u.,A,eV,Ry     =   1.513189  2.859512 31.153807  2.289740
  Thomas-Fermi vector in A             =   2.623013
 
 Write flags
   LWAVE  =      T    write WAVECAR
   LCHARG =      T    write CHGCAR
   LVTOT  =      F    write LOCPOT, total local potential
   LVHAR  =      F    write LOCPOT, Hartree potential only
   LELF   =      F    write electronic localiz. function (ELF)
   LORBIT =      0    0 simple, 1 ext, 2 COOP (PROOUT)


 Dipole corrections
   LMONO  =      F    monopole corrections only (constant potential shift)
   LDIPOL =      F    correct potential (dipole corrections)
   IDIPOL =      0    1-x, 2-y, 3-z, 4-all directions 
   EPSILON=  1.0000000 bulk dielectric constant

 Exchange correlation treatment:
   GGA     =    --    GGA type
   LEXCH   =     2    internal setting for exchange type
   VOSKOWN=      0    Vosko Wilk Nusair interpolation
   LHFCALC =     F    Hartree Fock is set to
   LHFONE  =     F    Hartree Fock one center treatment
   AEXX    =    0.0000 exact exchange contribution

 Linear response parameters
   LEPSILON=     F    determine dielectric tensor
   LRPA    =     F    only Hartree local field effects (RPA)
   LNABLA  =     F    use nabla operator in PAW spheres
   LVEL    =     F    velocity operator in full k-point grid
   LINTERFAST=   F  fast interpolation
   KINTER  =     0    interpolate to denser k-point grid
   CSHIFT  =0.1000    complex shift for real part using Kramers Kronig
   OMEGAMAX=  -1.0    maximum frequency
   DEG_THRESHOLD= 0.2000000E-02 threshold for treating states as degnerate
   RTIME   =    0.100 relaxation time in fs

 Orbital magnetization related:
   ORBITALMAG=     F  switch on orbital magnetization
   LCHIMAG   =     F  perturbation theory with respect to B field
   DQ        =  0.001000  dq finite difference perturbation B field



--------------------------------------------------------------------------------------------------------


 Static calculation
 charge density and potential will be updated during run
 non-spin polarized calculation
 RMM-DIIS sequential band-by-band and
  variant of blocked Davidson during initial phase
 perform sub-space diagonalisation
    before iterative eigenvector-optimisation
 modified Broyden-mixing scheme, WC =      100.0
 initial mixing is a Kerker type mixing with AMIX =  0.4000 and BMIX =      1.0000
 Hartree-type preconditioning will be used
 using additional bands            4
 reciprocal scheme for non local part
 use partial core corrections
 calculate Harris-corrections to forces 
   (improved forces if not selfconsistent)
 use of overlap-Matrix (Vanderbilt PP)
 Methfessel and Paxton  Order N= 1 SIGMA  =   0.20


--------------------------------------------------------------------------------------------------------


  energy-cutoff  :      250.00
  volume of cell :       50.65
      direct lattice vectors                 reciprocal lattice vectors
     3.700000000  0.000000000  0.000000000     0.270270270  0.000000000  0.000000000
     0.000000000  3.700000000  0.000000000     0.000000000  0.270270270  0.000000000
     0.000000000  0.000000000  3.700000000     0.000000000  0.000000000  0.270270270

  length of vectors
     3.700000000  3.700000000  3.700000000     0.270270270  0.270270270  0.270270270


 
 k-points in units of 2pi/SCALE and weight: Kpoints file generated with pyCMW       
   0.03378378  0.03378378  0.03378378       0.125
   0.10135135  0.03378378  0.03378378       0.375
   0.10135135  0.10135135  0.03378378       0.375
   0.10135135  0.10135135  0.10135135       0.125
 
 k-points in reciprocal lattice and weights: Kpoints file generated with pyCMW       
   0.12500000  0.12500000  0.12500000       0.125
   0.37500000  0.12500000  0.12500000       0.375
   0.37500000  0.37500000  0.12500000       0.375
   0.37500000  0.37500000  0.37500000       0.125
 
 position of ions in fractional coordinates (direct lattice) 
   0.00000000  0.00000000  0.00000000
   0.50000000  0.50000000  0.00000000
   0.50000000  0.00000000  0.50000000
   0.00000000  0.50000000  0.50000000
 
 position of ions in cartesian coordinates  (Angst):
   0.00000000  0.00000000  0.00000000
   1.85000000  1.85000000  0.00000000
   1.85000000  0.00000000  1.85000000
   0.00000000  1.85000000  1.85000000
 


--------------------------------------------------------------------------------------------------------


 k-point  1 :   0.1250 0.1250 0.1250  plane waves:     452
 k-point  2 :   0.3750 0.1250 0.1250  plane waves:     457
 k-point  3 :   0.3750 0.3750 0.1250  plane waves:     451
 k-point  4 :   0.3750 0.3750 0.3750  plane waves:     459

 maximum number of plane-waves:       459
 maximum index in each direction: 
   IXMAX=    4   IYMAX=    4   IZMAX=    4
   IXMIN=   -5   IYMIN=   -5   IZMIN=   -5

 NGX is ok and might be reduce to  20
 NGY is ok and might be reduce to  20
 NGZ is ok and might be reduce to  20

 total amount of memory used by VASP on root node    34670. kBytes
========================================================================

   base      :      30000. kBytes
   nonl-proj :        293. kBytes
   grid      :       3500. kBytes
   one-center:         62. kBytes
   wavefun   :        815. kBytes
 
     INWAV:  cpu time    0.0000: real time    0.0000
 Broyden mixing: mesh for mixing (old mesh)
   NGX =  9   NGY =  9   NGZ =  9
  (NGX  = 40   NGY  = 40   NGZ  = 40)
  gives a total of    ****** points

 initial charge density was supplied:
 charge density of overlapping atoms calculated
 number of electron      40.0000000 magnetization 
 keeping initial charge density in first step


--------------------------------------------------------------------------------------------------------


 Maximum index for augmentation-charges         4945 (set IRDMAX)


--------------------------------------------------------------------------------------------------------


 First call to EWALD:  gamma=   0.479
 Maximum number of real-space cells 3x 3x 3
 Maximum number of reciprocal cells 3x 3x 3

    FEWALD:  cpu time    0.0010: real time    0.0010


----------------------------------------- Iteration    1(   1)  ---------------------------------------


    POTLOK:  cpu time    0.0056: real time    0.0056
    SETDIJ:  cpu time    0.0161: real time    0.0061
     EDDAV:  cpu time    0.2032: real time    0.1012
       DOS:  cpu time    0.0003: real time    0.0003
    --------------------------------------------
      LOOP:  cpu time    0.2290: real time    0.1149

 eigenvalue-minimisations  :   192
 total energy-change (2. order) : 0.1645035E+03  (-0.1189812E+04)
 number of electron      40.0000000 magnetization 
 augmentation part       40.0000000 magnetization 

 Free energy of the ion-electron system (eV)
  ---------------------------------------------------
  alpha Z        PSCENC =       311.04019268
  Ewald energy   TEWEN  =     -3568.70479768
  -Hartree energ DENC   =     -1068.11478064
  -exchange      EXHF   =         0.00000000
  -V(xc)+E(xc)   XCENC  =       127.99540337
  PAW double counting   =      3482.64183831    -3758.54618664
  entropy T*S    EENTRO =         0.01821201
  eigenvalues    EBANDS =       311.27484190
  atomic energy  EATOM  =      4326.89873782
  Solvation  Ediel_sol  =         0.00000000
  ---------------------------------------------------
  free energy    TOTEN  =       164.50346113 eV

  energy without entropy =      164.48524912  energy(sigma->0) =      164.49739046


--------------------------------------------------------------------------------------------------------




----------------------------------------- Iteration    1(   2)  ---------------------------------------


     EDDAV:  cpu time    0.2155: real time    0.1073
       DOS:  cpu time    0.0008: real time    0.0004
    --------------------------------------------
      LOOP:  cpu time    0.2211: real time    0.1118

 eigenvalue-minimisations  :   216
 total energy-change (2. order) :-0.1868517E+03  (-0.1813409E+03)
 number of electron      40.0000000 magnetization 
 augmentation part       40.0000000 magnetization 

 Free energy of the ion-electron system (eV)
  ---------------------------------------------------
  alpha Z        PSCENC =       311.04019268
  Ewald energy   TEWEN  =     -3568.70479768
  -Hartree energ DENC   =     -1068.11478064
  -exchange      EXHF   =         0.00000000
  -V(xc)+E(xc)   XCENC  =       127.99540337
  PAW double counting   =      3482.64183831    -3758.54618664
  entropy T*S    EENTRO =        -0.00317955
  eigenvalues    EBANDS =       124.44451127
  atomic energy  EATOM  =      4326.89873782
  Solvation  Ediel_sol  =         0.00000000
  ---------------------------------------------------
  free energy    TOTEN  =       -22.34826105 eV

  energy without entropy =      -22.34508150  energy(sigma->0) =      -22.34720120


--------------------------------------------------------------------------------------------------------




----------------------------------------- Iteration    1(   3)  ---------------------------------------


     EDDAV:  cpu time    0.2219: real time    0.1121
       DOS:  cpu time    0.0009: real time    0.0004
    --------------------------------------------
      LOOP:  cpu time    0.2275: real time    0.1168

 eigenvalue-minimisations  :   216
 total energy-change (2. order) :-0.6702180E+01  (-0.6537934E+01)
 number of electron      40.0000000 magnetization 
 augmentation part       40.0000000 magnetization 

 Free energy of the ion-electron system (eV)
  ---------------------------------------------------
  alpha Z        PSCENC =       311.04019268
  Ewald energy   TEWEN  =     -3568.70479768
  -Hartree energ DENC   =     -1068.11478064
  -exchange      EXHF   =         0.00000000
  -V(xc)+E(xc)   XCENC  =       127.99540337
  PAW double counting   =      3482.64183831    -3758.54618664
  entropy T*S    EENTRO =        -0.04716088
  eigenvalues    EBANDS =       117.78631215
  atomic energy  EATOM  =      4326.89873782
  Solvation  Ediel_sol  =         0.00000000
  ---------------------------------------------------
  free energy    TOTEN  =       -29.05044151 eV

  energy without entropy =      -29.00328063  energy(sigma->0) =      -29.03472122


--------------------------------------------------------------------------------------------------------




----------------------------------------- Iteration    1(   4)  ---------------------------------------


     EDDAV:  cpu time    0.2043: real time    0.1025
       DOS:  cpu time    0.0009: real time    0.0004
    --------------------------------------------
      LOOP:  cpu time    0.2099: real time    0.1071

 eigenvalue-minimisations  :   200
 total energy-change (2. order) :-0.4362884E-01  (-0.4360321E-01)
 number of electron      40.0000000 magnetization 
 augmentation part       40.0000000 magnetization 

 Free energy of the ion-electron system (eV)
  ---------------------------------------------------
  alpha Z        PSCENC =       311.04019268
  Ewald energy   TEWEN  =     -3568.70479768
  -Hartree energ DENC   =     -1068.11478064
  -exchange      EXHF   =         0.00000000
  -V(xc)+E(xc)   XCENC  =       127.99540337
  PAW double counting   =      3482.64183831    -3758.54618664
  entropy T*S    EENTRO =        -0.04760113
  eigenvalues    EBANDS =       117.74312356
  atomic energy  EATOM  =      4326.89873782
  Solvation  Ediel_sol  =         0.00000000
  ---------------------------------------------------
  free energy    TOTEN  =       -29.09407035 eV

  energy without entropy =      -29.04646922  energy(sigma->0) =      -29.07820330


--------------------------------------------------------------------------------------------------------




----------------------------------------- Iteration    1(   5)  ---------------------------------------


     EDDAV:  cpu time    0.2026: real time    0.1015
       DOS:  cpu time    0.0009: real time    0.0004
    CHARGE:  cpu time    0.0362: real time    0.0181
    MIXING:  cpu time    0.0014: real time    0.0007
    --------------------------------------------
      LOOP:  cpu time    0.2460: real time    0.1252

 eigenvalue-minimisations  :   200
 total energy-change (2. order) :-0.4250560E-03  (-0.4249807E-03)
 number of electron      39.9999730 magnetization 
 augmentation part       22.2468505 magnetization 

 Broyden mixing:
  rms(total) = 0.16752E+01    rms(broyden)= 0.16731E+01
  rms(prec ) = 0.39404E+01
  weight for this iteration     100.00

 Free energy of the ion-electron system (eV)
  ---------------------------------------------------
  alpha Z        PSCENC =       311.04019268
  Ewald energy   TEWEN  =     -3568.70479768
  -Hartree energ DENC   =     -1068.11478064
  -exchange      EXHF   =         0.00000000
  -V(xc)+E(xc)   XCENC  =       127.99540337
  PAW double counting   =      3482.64183831    -3758.54618664
  entropy T*S    EENTRO =        -0.04761032
  eigenvalues    EBANDS =       117.74270769
  atomic energy  EATOM  =      4326.89873782
  Solvation  Ediel_sol  =         0.00000000
  ---------------------------------------------------
  free energy    TOTEN  =       -29.09449540 eV

  energy without entropy =      -29.04688508  energy(sigma->0) =      -29.07862530


--------------------------------------------------------------------------------------------------------




----------------------------------------- Iteration    1(   6)  ---------------------------------------


    POTLOK:  cpu time    0.0110: real time    0.0055
    SETDIJ:  cpu time    0.0113: real time    0.0057
    EDDIAG:  cpu time    0.0494: real time    0.0248
  RMM-DIIS:  cpu time    0.1620: real time    0.0811
    ORTHCH:  cpu time    0.0011: real time    0.0006
       DOS:  cpu time    0.0010: real time    0.0005
    CHARGE:  cpu time    0.0352: real time    0.0176
    MIXING:  cpu time    0.0016: real time    0.0008
    --------------------------------------------
      LOOP:  cpu time    0.2777: real time    0.1408

 eigenvalue-minimisations  :   192
 total energy-change (2. order) : 0.2006488E+01  (-0.6274612E+01)
 number of electron      39.9999708 magnetization 
 augmentation part       26.5275364 magnetization 

 Broyden mixing:
  rms(total) = 0.11129E+01    rms(broyden)= 0.11119E+01
  rms(prec ) = 0.25018E+01
  weight for this iteration     100.00

 eigenvalues of (default mixing * dielectric matrix)
  average eigenvalue GAMMA=   0.6003
  0.6003

 Free energy of the ion-electron system (eV)
  ---------------------------------------------------
  alpha Z        PSCENC =       311.04019268
  Ewald energy   TEWEN  =     -3568.70479768
  -Hartree energ DENC   =      -961.78593118
  -exchange      EXHF   =         0.00000000
  -V(xc)+E(xc)   XCENC  =       122.25489103
  PAW double counting   =      3378.40216721    -3632.04212893
  entropy T*S    EENTRO =        -0.03232264
  eigenvalues    EBANDS =        -3.11881550
  atomic energy  EATOM  =      4326.89873782
  Solvation  Ediel_sol  =         0.00000000
  ---------------------------------------------------
  free energy    TOTEN  =       -27.08800718 eV

  energy without entropy =      -27.05568454  energy(sigma->0) =      -27.07723297


--------------------------------------------------------------------------------------------------------




----------------------------------------- Iteration    1(   7)  ---------------------------------------


    POTLOK:  cpu time    0.0110: real time    0.0055
    SETDIJ:  cpu time    0.0111: real time    0.0057
    EDDIAG:  cpu time    0.0544: real time    0.0277
  RMM-DIIS:  cpu time    0.1687: real time    0.0854
    ORTHCH:  cpu time    0.0011: real time    0.0006
       DOS:  cpu time    0.0009: real time    0.0005
    CHARGE:  cpu time    0.0369: real time    0.0187
    MIXING:  cpu time    0.0017: real time    0.0008
    --------------------------------------------
      LOOP:  cpu time    0.2910: real time    0.1493

 eigenvalue-minimisations  :   192
 total energy-change (2. order) : 0.2450670E+01  (-0.1137739E+01)
 number of electron      39.9999716 magnetization 
 augmentation part       24.6407047 magnetization 

 Broyden mixing:
  rms(total) = 0.10189E+00    rms(broyden)= 0.99350E-01
  rms(prec ) = 0.24460E+00
  weight for this iteration     100.00

 eigenvalues of (default mixing * dielectric matrix)
  average eigenvalue GAMMA=   1.1800
  1.7800  0.5799

 Free energy of the ion-electron system (eV)
  ---------------------------------------------------
  alpha Z        PSCENC =       311.04019268
  Ewald energy   TEWEN  =     -3568.70479768
  -Hartree energ DENC   =     -1001.96715995
  -exchange      EXHF   =         0.00000000
  -V(xc)+E(xc)   XCENC  =       124.47868882
  PAW double counting   =      3478.43018396    -3748.64733638
  entropy T*S    EENTRO =        -0.07399632
  eigenvalues    EBANDS =        53.90814999
  atomic energy  EATOM  =      4326.89873782
  Solvation  Ediel_sol  =         0.00000000
  ---------------------------------------------------
  free energy    TOTEN  =       -24.63733705 eV

  energy without entropy =      -24.56334073  energy(sigma->0) =      -24.61267161


--------------------------------------------------------------------------------------------------------




----------------------------------------- Iteration    1(   8)  ---------------------------------------


    POTLOK:  cpu time    0.0111: real time    0.0056
    SETDIJ:  cpu time    0.0139: real time    0.0074
    EDDIAG:  cpu time    0.0577: real time    0.0318
  RMM-DIIS:  cpu time    0.1910: real time    0.1001
    ORTHCH:  cpu time    0.0011: real time    0.0006
       DOS:  cpu time    0.0012: real time    0.0006
    CHARGE:  cpu time    0.0399: real time    0.0208
    MIXING:  cpu time    0.0016: real time    0.0008
    --------------------------------------------
      LOOP:  cpu time    0.3229: real time    0.1723

 eigenvalue-minimisations  :   192
 total energy-change (2. order) : 0.3306049E-01  (-0.2451359E-02)
 number of electron      39.9999719 magnetization 
 augmentation part       24.6597187 magnetization 

 Broyden mixing:
  rms(total) = 0.53842E-01    rms(broyden)= 0.53765E-01
  rms(prec ) = 0.13198E+00
  weight for this iteration     100.00

 eigenvalues of (default mixing * dielectric matrix)
  average eigenvalue GAMMA=   1.1442
  0.5989  0.7580  2.0757

 Free energy of the ion-electron system (eV)
  ---------------------------------------------------
  alpha Z        PSCENC =       311.04019268
  Ewald energy   TEWEN  =     -3568.70479768
  -Hartree energ DENC   =      -995.58128259
  -exchange      EXHF   =         0.00000000
  -V(xc)+E(xc)   XCENC  =       124.16731300
  PAW double counting   =      3533.53469498    -3808.89073628
  entropy T*S    EENTRO =        -0.07265112
  eigenvalues    EBANDS =        53.00425263
  atomic energy  EATOM  =      4326.89873782
  Solvation  Ediel_sol  =         0.00000000
  ---------------------------------------------------
  free energy    TOTEN  =       -24.60427656 eV

  energy without entropy =      -24.53162544  energy(sigma->0) =      -24.58005952


--------------------------------------------------------------------------------------------------------




----------------------------------------- Iteration    1(   9)  ---------------------------------------


    POTLOK:  cpu time    0.0111: real time    0.0055
    SETDIJ:  cpu time    0.0105: real time    0.0097
    EDDIAG:  cpu time    0.0573: real time    0.0381
  RMM-DIIS:  cpu time    0.1889: real time    0.0989
    ORTHCH:  cpu time    0.0013: real time    0.0007
       DOS:  cpu time    0.0012: real time    0.0007
    CHARGE:  cpu time    0.0397: real time    0.0206
    MIXING:  cpu time    0.0018: real time    0.0009
    --------------------------------------------
      LOOP:  cpu time    0.3174: real time    0.1807

 eigenvalue-minimisations  :   195
 total energy-change (2. order) : 0.6514672E-02  (-0.7613904E-03)
 number of electron      39.9999718 magnetization 
 augmentation part       24.7211017 magnetization 

 Broyden mixing:
  rms(total) = 0.74389E-02    rms(broyden)= 0.74187E-02
  rms(prec ) = 0.17627E-01
  weight for this iteration     100.00

 eigenvalues of (default mixing * dielectric matrix)
  average eigenvalue GAMMA=   1.4346
  2.7983  1.4956  0.5926  0.8518

 Free energy of the ion-electron system (eV)
  ---------------------------------------------------
  alpha Z        PSCENC =       311.04019268
  Ewald energy   TEWEN  =     -3568.70479768
  -Hartree energ DENC   =      -992.36321604
  -exchange      EXHF   =         0.00000000
  -V(xc)+E(xc)   XCENC  =       124.00666893
  PAW double counting   =      3552.77464618    -3829.38595630
  entropy T*S    EENTRO =        -0.06975401
  eigenvalues    EBANDS =        51.20571653
  atomic energy  EATOM  =      4326.89873782
  Solvation  Ediel_sol  =         0.00000000
  ---------------------------------------------------
  free energy    TOTEN  =       -24.59776189 eV

  energy without entropy =      -24.52800788  energy(sigma->0) =      -24.57451055


--------------------------------------------------------------------------------------------------------




----------------------------------------- Iteration    1(  10)  ---------------------------------------


    POTLOK:  cpu time    0.0111: real time    0.0059
    SETDIJ:  cpu time    0.0114: real time    0.0095
    EDDIAG:  cpu time    0.0509: real time    0.0437
  RMM-DIIS:  cpu time    0.1373: real time    0.0717
    ORTHCH:  cpu time    0.0016: real time    0.0009
       DOS:  cpu time    0.0009: real time    0.0005
    CHARGE:  cpu time    0.0379: real time    0.0198
    MIXING:  cpu time    0.0018: real time    0.0009
    --------------------------------------------
      LOOP:  cpu time    0.2585: real time    0.1585

 eigenvalue-minimisations  :   131
 total energy-change (2. order) : 0.1105753E-03  (-0.6611577E-04)
 number of electron      39.9999718 magnetization 
 augmentation part       24.7346831 magnetization 

 Broyden mixing:
  rms(total) = 0.43282E-02    rms(broyden)= 0.43221E-02
  rms(prec ) = 0.94175E-02
  weight for this iteration     100.00

 eigenvalues of (default mixing * dielectric matrix)
  average eigenvalue GAMMA=   1.4773
  2.4604  2.4604  0.5912  0.9537  0.9207

 Free energy of the ion-electron system (eV)
  ---------------------------------------------------
  alpha Z        PSCENC =       311.04019268
  Ewald energy   TEWEN  =     -3568.70479768
  -Hartree energ DENC   =      -991.63274251
  -exchange      EXHF   =         0.00000000
  -V(xc)+E(xc)   XCENC  =       123.97148753
  PAW double counting   =      3561.32904812    -3838.29007081
  entropy T*S    EENTRO =        -0.06914293
  eigenvalues    EBANDS =        50.85963647
  atomic energy  EATOM  =      4326.89873782
  Solvation  Ediel_sol  =         0.00000000
  ---------------------------------------------------
  free energy    TOTEN  =       -24.59765131 eV

  energy without entropy =      -24.52850838  energy(sigma->0) =      -24.57460367


--------------------------------------------------------------------------------------------------------




----------------------------------------- Iteration    1(  11)  ---------------------------------------


    POTLOK:  cpu time    0.0129: real time    0.0068
    SETDIJ:  cpu time    0.0121: real time    0.0062
    EDDIAG:  cpu time    0.0535: real time    0.0284
  RMM-DIIS:  cpu time    0.1070: real time    0.0563
    ORTHCH:  cpu time    0.0011: real time    0.0006
       DOS:  cpu time    0.0009: real time    0.0005
    --------------------------------------------
      LOOP:  cpu time    0.1934: real time    0.1041

 eigenvalue-minimisations  :    96
 total energy-change (2. order) :-0.8482518E-05  (-0.1446303E-04)
 number of electron      39.9999718 magnetization 
 augmentation part       24.7346831 magnetization 

 Free energy of the ion-electron system (eV)
  ---------------------------------------------------
  alpha Z        PSCENC =       311.04019268
  Ewald energy   TEWEN  =     -3568.70479768
  -Hartree energ DENC   =      -992.01088296
  -exchange      EXHF   =         0.00000000
  -V(xc)+E(xc)   XCENC  =       123.99117747
  PAW double counting   =      3562.82885657    -3839.62186343
  entropy T*S    EENTRO =        -0.06939893
  eigenvalues    EBANDS =        51.05031867
  atomic energy  EATOM  =      4326.89873782
  Solvation  Ediel_sol  =         0.00000000
  ---------------------------------------------------
  free energy    TOTEN  =       -24.59765979 eV

  energy without entropy =      -24.52826087  energy(sigma->0) =      -24.57452682


--------------------------------------------------------------------------------------------------------




 average (electrostatic) potential at core
  the test charge radii are     0.9791
  (the norm of the test charge is              1.0000)
       1 -44.3538       2 -44.3538       3 -44.3538       4 -44.3538
 
 
 
 E-fermi :   2.9738     XC(G=0): -12.7283     alpha+bet :-10.1549


 k-point     1 :       0.1250    0.1250    0.1250
  band No.  band energies     occupation 
      1      -4.2631      2.00000
      2      -0.2670      2.00000
      3      -0.2670      2.00000
      4      -0.2670      2.00000
      5       0.1697      2.00000
      6       0.1697      2.00000
      7       0.1697      2.00000
      8       1.3523      2.00000
      9       1.5754      2.00000
     10       1.5754      2.00000
     11       2.3399      2.00007
     12       2.3399      2.00007
     13       2.3818      2.00023
     14       2.3818      2.00023
     15       2.3818      2.00023
     16       2.7329      2.07079
     17       2.7329      2.07079
     18       2.7329      2.07079
     19       3.0268      0.56911
     20       3.0268      0.56911
     21       3.0268      0.56911
     22       5.5512     -0.00000
     23       5.5512     -0.00000
     24       5.5512     -0.00000

 k-point     2 :       0.3750    0.1250    0.1250
  band No.  band energies     occupation 
      1      -2.9075      2.00000
      2      -0.8866      2.00000
      3       0.2724      2.00000
      4       0.2724      2.00000
      5       0.5175      2.00000
      6       0.5288      2.00000
      7       0.5288      2.00000
      8       1.0197      2.00000
      9       1.3382      2.00000
     10       1.3382      2.00000
     11       1.6469      2.00000
     12       1.7030      2.00000
     13       1.8130      2.00000
     14       2.2294      2.00000
     15       2.2691      2.00001
     16       2.3908      2.00030
     17       2.3908      2.00030
     18       2.5736      2.01592
     19       2.8791      1.71069
     20       2.9638      1.08468
     21       2.9638      1.08468
     22       3.0760      0.24804
     23       7.5429     -0.00000
     24       7.5429     -0.00000

 k-point     3 :       0.3750    0.3750    0.1250
  band No.  band energies     occupation 
      1      -1.7496      2.00000
      2      -0.2227      2.00000
      3      -0.2227      2.00000
      4       0.2386      2.00000
      5       0.7918      2.00000
      6       0.8477      2.00000
      7       0.8477      2.00000
      8       1.0507      2.00000
      9       1.1850      2.00000
     10       1.1850      2.00000
     11       1.2872      2.00000
     12       1.5310      2.00000
     13       1.7939      2.00000
     14       2.0653      2.00000
     15       2.0653      2.00000
     16       2.0677      2.00000
     17       2.2971      2.00002
     18       2.7020      2.06630
     19       2.7020      2.06630
     20       2.7512      2.06649
     21       3.0301      0.54407
     22       4.3112     -0.00000
     23       4.3112     -0.00000
     24       6.4225     -0.00000

 k-point     4 :       0.3750    0.3750    0.3750
  band No.  band energies     occupation 
      1      -1.1247      2.00000
      2      -0.4121      2.00000
      3      -0.4121      2.00000
      4      -0.4121      2.00000
      5       1.2436      2.00000
      6       1.2436      2.00000
      7       1.2436      2.00000
      8       1.5271      2.00000
      9       1.5271      2.00000
     10       1.6514      2.00000
     11       1.6514      2.00000
     12       1.6514      2.00000
     13       1.7685      2.00000
     14       1.7685      2.00000
     15       1.7685      2.00000
     16       1.7706      2.00000
     17       2.7836      2.03855
     18       2.7836      2.03855
     19       2.9605      1.11299
     20       2.9605      1.11299
     21       2.9605      1.11299
     22       4.4786     -0.00000
     23       4.4786     -0.00000
     24       4.4786     -0.00000


--------------------------------------------------------------------------------------------------------


 soft charge-density along one line, spin component           1
         0         1         2         3         4         5         6         7         8         9
x    15.2653    0.0000    0.0000    0.0000    0.4974    0.0000   -0.0000   -0.0000   -0.3060   -0.0000
x     0.0000    0.0000    0.0592   -0.0000    0.0000   -0.0000    0.0041   -0.0000   -0.0000    0.0000
x     0.0000    0.0000
y    15.2653    0.0000    0.0000    0.0000    0.4974    0.0000   -0.0000   -0.0000   -0.3060   -0.0000
y     0.0000    0.0000    0.0592   -0.0000    0.0000   -0.0000    0.0041   -0.0000   -0.0000    0.0000
y     0.0000    0.0000
z    15.2653    0.0000    0.0000    0.0000    0.4974    0.0000   -0.0000   -0.0000   -0.3060   -0.0000
z     0.0000    0.0000    0.0592   -0.0000    0.0000   -0.0000    0.0041   -0.0000   -0.0000    0.0000
z     0.0000    0.0000
 total charge-density along one line
x    40.0000    0.0000   -0.0000   -0.0000   16.1832    0.0000    0.0000   -0.0000    2.9329    0.0000
x    -0.0000   -0.0000    0.0222    0.0000   -0.0000    0.0000    0.0367   -0.0000    0.0000    0.0000
x    -0.0087   -0.0000    0.0000    0.0000    0.0035    0.0000   -0.0000   -0.0000   -0.0017   -0.0000
x    -0.0000   -0.0000    0.0009    0.0000   -0.0000   -0.0000   -0.0006   -0.0000    0.0000    0.0000
x     0.0005    0.0000
y    40.0000    0.0000    0.0000   -0.0000   16.1832    0.0000    0.0000   -0.0000    2.9329    0.0000
y    -0.0000    0.0000    0.0222    0.0000   -0.0000    0.0000    0.0367   -0.0000    0.0000    0.0000
y    -0.0087   -0.0000    0.0000    0.0000    0.0035    0.0000   -0.0000   -0.0000   -0.0017    0.0000
y     0.0000    0.0000    0.0009    0.0000    0.0000    0.0000   -0.0006    0.0000    0.0000    0.0000
y     0.0005   -0.0000
z    40.0000    0.0000    0.0000   -0.0000   16.1832    0.0000    0.0000   -0.0000    2.9329    0.0000
z     0.0000    0.0000    0.0222    0.0000   -0.0000    0.0000    0.0367   -0.0000    0.0000    0.0000
z    -0.0087   -0.0000    0.0000    0.0000    0.0035    0.0000   -0.0000    0.0000   -0.0017    0.0000
z    -0.0000    0.0000    0.0009   -0.0000    0.0000    0.0000   -0.0006   -0.0000    0.0000    0.0000
z     0.0005   -0.0000
 
 pseudopotential strength for first ion, spin component:           1
 -6.078   0.000  -0.000   0.000   0.000  -0.430  -0.000   0.000
  0.000  -6.078   0.000   0.000  -0.000  -0.000  -0.430  -0.000
 -0.000   0.000  -6.034   0.000   0.000   0.000  -0.000  -0.447
  0.000   0.000   0.000  -6.078   0.000  -0.000  -0.000  -0.000
  0.000  -0.000   0.000   0.000  -6.034  -0.000   0.000  -0.000
 -0.430  -0.000   0.000  -0.000  -0.000   1.492   0.000  -0.000
 -0.000  -0.430  -0.000  -0.000   0.000   0.000   1.492   0.000
  0.000  -0.000  -0.447  -0.000  -0.000  -0.000   0.000   1.499
 -0.000  -0.000  -0.000  -0.430  -0.000   0.000   0.000   0.000
 -0.000   0.000  -0.000  -0.000  -0.447   0.000  -0.000   0.000
 -0.000  -0.000  -0.000  -0.000   0.000  -0.000  -0.000  -0.000
  0.000   0.000   0.000   0.000  -0.000  -0.000  -0.000  -0.000
  0.000   0.000   0.000   0.000   0.000  -0.000  -0.000   0.000
  0.000  -0.000   0.000   0.000  -0.000   0.000   0.000  -0.000
 -0.000   0.000  -0.000   0.000   0.000   0.000   0.000   0.000
 -0.000  -0.000  -0.000  -0.000  -0.000   0.000   0.000   0.000
 -0.000  -0.000   0.000  -0.000   0.000   0.000   0.000   0.000
 -0.000  -0.000   0.000  -0.000  -0.000   0.000   0.000  -0.000
 total augmentation occupancy for first ion, spin component:           1
  1.746   0.000  -0.000   0.000  -0.000   0.064  -0.000  -0.000   0.000  -0.000   0.000  -0.000  -0.000   0.000   0.000   0.000
 -0.000   1.746  -0.000   0.000   0.000  -0.000   0.064   0.000   0.000   0.000   0.000  -0.000  -0.000  -0.000   0.000  -0.000
 -0.000  -0.000   1.821  -0.000   0.000   0.000   0.000   0.000   0.000   0.000   0.000   0.000  -0.000   0.000  -0.000   0.000
  0.000   0.000  -0.000   1.746  -0.000  -0.000   0.000  -0.000   0.064   0.000  -0.000  -0.000  -0.000  -0.000  -0.000   0.000
  0.000   0.000  -0.000   0.000   1.821  -0.000  -0.000   0.000   0.000   0.000   0.000  -0.000  -0.000   0.000   0.000   0.000
  0.064  -0.000   0.000  -0.000   0.000   0.064   0.000   0.000  -0.000   0.000  -0.000  -0.000   0.000   0.000  -0.000  -0.000
  0.000   0.064  -0.000  -0.000  -0.000   0.000   0.064  -0.000  -0.000   0.000  -0.000  -0.000  -0.000   0.000  -0.000   0.000
 -0.000   0.000   0.000   0.000   0.000  -0.000  -0.000   0.064  -0.000  -0.000   0.000  -0.000  -0.000   0.000  -0.000   0.000
  0.000   0.000   0.000   0.064   0.000  -0.000  -0.000   0.000   0.064   0.000   0.000  -0.000   0.000   0.000  -0.000  -0.000
 -0.000   0.000  -0.000   0.000   0.000  -0.000  -0.000  -0.000  -0.000   0.064  -0.000  -0.000   0.000   0.000   0.000   0.000
  0.000   0.000  -0.000  -0.000   0.000  -0.000   0.000   0.000  -0.000  -0.000   1.112  -0.300  -0.000   0.000  -0.000   0.000
 -0.000  -0.000   0.000  -0.000   0.000  -0.000  -0.000  -0.000  -0.000  -0.000  -0.300   0.098   0.000  -0.000  -0.000   0.000
 -0.000   0.000  -0.000   0.000   0.000   0.000  -0.000  -0.000  -0.000   0.000  -0.000   0.000   0.161   0.000  -0.000  -0.012
  0.000  -0.000   0.000  -0.000   0.000   0.000  -0.000   0.000  -0.000   0.000   0.000  -0.000  -0.000   0.161  -0.000   0.000
 -0.000   0.000  -0.000   0.000  -0.000   0.000  -0.000   0.000  -0.000  -0.000  -0.000  -0.000  -0.000   0.000   0.161  -0.000
  0.000  -0.000  -0.000  -0.000  -0.000  -0.000   0.000   0.000  -0.000  -0.000   0.000   0.000  -0.012   0.000   0.000   0.001
  0.000   0.000  -0.000   0.000   0.000   0.000  -0.000   0.000  -0.000   0.000   0.000   0.000   0.000  -0.012   0.000  -0.000
 -0.000  -0.000  -0.000   0.000  -0.000   0.000   0.000  -0.000  -0.000  -0.000  -0.000   0.000  -0.000  -0.000  -0.012   0.000


------------------------ aborting loop because EDIFF is reached ----------------------------------------


    CHARGE:  cpu time    0.0361: real time    0.0182
    FORLOC:  cpu time    0.0028: real time    0.0014
    FORNL :  cpu time    0.0629: real time    0.0316
    STRESS:  cpu time    0.1329: real time    0.0665
    FORCOR:  cpu time    0.0136: real time    0.0068
    FORHAR:  cpu time    0.0113: real time    0.0057
    MIXING:  cpu time    0.0019: real time    0.0009
    OFIELD:  cpu time    0.0001: real time    0.0000

  FORCE on cell =-STRESS in cart. coord.  units (eV):
  Direction    XX          YY          ZZ          XY          YZ          ZX
  --------------------------------------------------------------------------------------
  Alpha Z   311.04019   311.04019   311.04019
  Ewald   -1189.56879 -1189.56879 -1189.56879    -0.00000     0.00000     0.00000
  Hartree   330.57629   330.57629   330.57629    -0.00000    -0.00000    -0.00000
  E(xc)    -214.42069  -214.42069  -214.42069    -0.00000    -0.00000    -0.00000
  Local     369.57057   369.57057   369.57057     0.00000    -0.00000     0.00000
  n-local  -142.72064  -144.33283  -141.88823     3.14037     2.22085     2.50523
  augment   208.52464   208.52464   208.52464     0.00000    -0.00000    -0.00000
  Kinetic   317.68309   311.71041   309.13857     1.59381     0.42477     0.93704
  Fock        0.00000     0.00000     0.00000     0.00000     0.00000     0.00000
  -------------------------------------------------------------------------------------
  Total     -14.41433   -14.41433   -14.41433     0.00000     0.00000     0.00000
  in kB    -455.93181  -455.93181  -455.93181     0.00000     0.00000     0.00000
  external pressure =     -455.93 kB  Pullay stress =        0.00 kB


 VOLUME and BASIS-vectors are now :
 -----------------------------------------------------------------------------
  energy-cutoff  :      250.00
  volume of cell :       50.65
      direct lattice vectors                 reciprocal lattice vectors
     3.700000000  0.000000000  0.000000000     0.270270270  0.000000000  0.000000000
     0.000000000  3.700000000  0.000000000     0.000000000  0.270270270  0.000000000
     0.000000000  0.000000000  3.700000000     0.000000000  0.000000000  0.270270270

  length of vectors
     3.700000000  3.700000000  3.700000000     0.270270270  0.270270270  0.270270270


 FORCES acting on ions
    electron-ion (+dipol)            ewald-force                    non-local-force                 convergence-correction
 -----------------------------------------------------------------------------------------------
   -.617E-13 0.546E-13 0.554E-13   0.456E-14 0.361E-14 -.577E-14   -.132E-22 -.744E-23 0.662E-22   -.387E-13 0.565E-14 0.564E-13
   -.236E-12 -.114E-12 0.558E-13   -.610E-14 0.117E-13 -.581E-14   -.620E-23 -.662E-23 -.132E-22   0.456E-13 0.421E-13 0.327E-13
   -.240E-12 0.577E-13 -.113E-12   0.152E-13 -.102E-13 0.628E-14   -.265E-22 -.232E-22 -.132E-22   0.554E-13 -.162E-13 -.713E-13
   -.596E-13 -.121E-12 -.117E-12   -.132E-13 -.207E-14 0.624E-14   0.397E-22 -.265E-22 0.132E-22   -.102E-13 0.540E-13 -.735E-13
 -----------------------------------------------------------------------------------------------
   -.597E-12 -.123E-12 -.119E-12   0.522E-15 0.308E-14 0.937E-15   -.620E-23 -.637E-22 0.529E-22   0.521E-13 0.856E-13 -.558E-13
 
 
 POSITION                                       TOTAL-FORCE (eV/Angst)
 -----------------------------------------------------------------------------------
      0.00000      0.00000      0.00000        -0.000000      0.000000      0.000000
      1.85000      1.85000      0.00000        -0.000000      0.000000      0.000000
      1.85000      0.00000      1.85000         0.000000      0.000000      0.000000
      0.00000      1.85000      1.85000         0.000000     -0.000000     -0.000000
 -----------------------------------------------------------------------------------
    total drift:                               -0.000000     -0.000000     -0.000000


--------------------------------------------------------------------------------------------------------



  FREE ENERGIE OF THE ION-ELECTRON SYSTEM (eV)
  ---------------------------------------------------
  free  energy   TOTEN  =       -24.59765979 eV

  energy  without entropy=      -24.52826087  energy(sigma->0) =      -24.57452682
 


--------------------------------------------------------------------------------------------------------


    POTLOK:  cpu time    0.0226: real time    0.0113


--------------------------------------------------------------------------------------------------------


 writing wavefunctions
     LOOP+:  cpu time    3.2626: real time    1.7430
    4ORBIT:  cpu time    0.0000: real time    0.0000

 total amount of memory used by VASP on root node    34670. kBytes
========================================================================

   base      :      30000. kBytes
   nonl-proj :        293. kBytes
   grid      :       3500. kBytes
   one-center:         62. kBytes
   wavefun   :        815. kBytes
 
  
  
 General timing and accounting informations for this job:
 ========================================================
  
                  Total CPU time used (sec):        3.543
                            User time (sec):        3.439
                          System time (sec):        0.104
                         Elapsed time (sec):        2.117
  
                   Maximum memory used (kb):    29757440.
                   Average memory used (kb):           0.
  
                          Minor page faults:         7589
                          Major page faults:            0
                 Voluntary context switches:           73
