 vasp.5.4.1 24Jun15 (build Apr 15 2016 18:00:36) complex                        
  
 executed on           IFC91_ompi date 2017.02.26  19:36:57
 serial version


--------------------------------------------------------------------------------------------------------


 INCAR:
 POTCAR:   PAW Fe 03Mar1998                       
 POTCAR:   PAW Fe 03Mar1998                       
   VRHFIN =Fe:  d7 s1                                                           
   LEXCH  = CA                                                                  
   EATOM  =   597.3650 eV,   43.9051 Ry                                         
                                                                                
   TITEL  = PAW Fe 03Mar1998                                                    
   LULTRA =        F    use ultrasoft PP ?                                      
   IUNSCR =        1    unscreen: 0-lin 1-nonlin 2-no                           
   RPACOR =    2.000    partial core radius                                     
   POMASS =   55.847; ZVAL   =    8.000    mass and valenz                      
   RCORE  =    2.300    outmost cutoff radius                                   
   RWIGS  =    2.460; RWIGS  =    1.302    wigner-seitz radius (au A)           
   ENMAX  =  267.969; ENMIN  =  200.977 eV                                      
   RCLOC  =    1.701    cutoff for local pot                                    
   LCOR   =        T    correct aug charges                                     
   LPAW   =        T    paw PP                                                  
   EAUG   =  511.368                                                            
   DEXC   =    -.018                                                            
   RMAX   =    2.817    core radius for proj-oper                               
   RAUG   =    1.300    factor for augmentation sphere                          
   RDEP   =    2.442    core radius for depl-charge                             
   QCUT   =   -4.438; QGAM   =    8.876    optimization parameters              
                                                                                
   Description                                                                  
     l     E      TYP  RCUT    TYP  RCUT                                        
     2   .000     23  2.300                                                     
     2   .000     23  2.300                                                     
     0   .000     23  2.300                                                     
     0   .000     23  2.300                                                     
     1  -.200     23  2.300                                                     
     1   .000     23  2.300                                                     
     3   .000      7   .000                                                     
  local pseudopotential read in
  partial core-charges read in
  atomic valenz-charges read in
  non local Contribution for L=           2  read in
    real space projection operators read in
  non local Contribution for L=           2  read in
    real space projection operators read in
  non local Contribution for L=           0  read in
    real space projection operators read in
  non local Contribution for L=           0  read in
    real space projection operators read in
  non local Contribution for L=           1  read in
    real space projection operators read in
  non local Contribution for L=           1  read in
    real space projection operators read in
    PAW grid and wavefunctions read in
 
   number of l-projection  operators is LMAX  =           6
   number of lm-projection operators is LMMAX =          18
 
 PAW Fe 03Mar1998                       :
 energy of atom  1       EATOM= -597.3650
 kinetic energy error for atom=    0.0664 (will be added to EATOM!!)
 
 
 POSCAR: Poscar file generated with pyCMW        
  positions in cartesian coordinates
  No initial velocities read in
 exchange correlation table for  LEXCH =        2
   RHO(1)=    0.500       N(1)  =     2000
   RHO(2)=  100.500       N(2)  =     4000
 


--------------------------------------------------------------------------------------------------------


 ion  position               nearest neighbor table
   1  0.000  0.000  0.000-   2 2.42   2 2.42   2 2.42   2 2.42   2 2.42   2 2.42   2 2.42   2 2.42

   2  0.500  0.500  0.500-   1 2.42   1 2.42   1 2.42   1 2.42   1 2.42   1 2.42   1 2.42   1 2.42

 
  LATTYP: Found a simple cubic cell.
 ALAT       =     2.8000000000
  
  Lattice vectors:
  
 A1 = (   2.8000000000,   0.0000000000,   0.0000000000)
 A2 = (   0.0000000000,   2.8000000000,   0.0000000000)
 A3 = (   0.0000000000,   0.0000000000,   2.8000000000)


Analysis of symmetry for initial positions (statically):
=====================================================================
 Subroutine PRICEL returns following result:
 
  LATTYP: Found a body centered cubic cell.
 ALAT       =     2.8000000000
  
  Lattice vectors:
  
 A1 = (   1.4000000000,   1.4000000000,   1.4000000000)
 A2 = (   1.4000000000,  -1.4000000000,  -1.4000000000)
 A3 = (  -1.4000000000,   1.4000000000,  -1.4000000000)
 
   2 primitive cells build up your supercell.
 

 Routine SETGRP: Setting up the symmetry group for a 
 simple cubic supercell.


 Subroutine GETGRP returns: Found 48 space group operations
 (whereof 48 operations were pure point group operations)
 out of a pool of 48 trial point group operations.


The static configuration has the point symmetry O_h .


Analysis of symmetry for dynamics (positions and initial velocities):
=====================================================================
 Subroutine PRICEL returns following result:
 
  LATTYP: Found a body centered cubic cell.
 ALAT       =     2.8000000000
  
  Lattice vectors:
  
 A1 = (   1.4000000000,   1.4000000000,   1.4000000000)
 A2 = (   1.4000000000,  -1.4000000000,  -1.4000000000)
 A3 = (  -1.4000000000,   1.4000000000,  -1.4000000000)
 
   2 primitive cells build up your supercell.
 

 Routine SETGRP: Setting up the symmetry group for a 
 simple cubic supercell.


 Subroutine GETGRP returns: Found 48 space group operations
 (whereof 48 operations were pure point group operations)
 out of a pool of 48 trial point group operations.


The dynamic configuration has the point symmetry O_h .


Analysis of structural, dynamic, and magnetic symmetry:
=====================================================================
 Subroutine PRICEL returns following result:
 
  LATTYP: Found a body centered cubic cell.
 ALAT       =     2.8000000000
  
  Lattice vectors:
  
 A1 = (   1.4000000000,   1.4000000000,   1.4000000000)
 A2 = (   1.4000000000,  -1.4000000000,  -1.4000000000)
 A3 = (  -1.4000000000,   1.4000000000,  -1.4000000000)
 
   2 primitive cells build up your supercell.
 

 Routine SETGRP: Setting up the symmetry group for a 
 simple cubic supercell.


 Subroutine GETGRP returns: Found 48 space group operations
 (whereof 48 operations were pure point group operations)
 out of a pool of 48 trial point group operations.


The magnetic configuration has the point symmetry O_h .


 Subroutine INISYM returns: Found 48 space group operations
 (whereof 48 operations are pure point group operations),
 and found     2 'primitive' translations

 
 
 KPOINTS: Kpoints file generated with pyCMW       

Automatic generation of k-mesh.
Space group operators:
 irot       det(A)        alpha          n_x          n_y          n_z        tau_x        tau_y        tau_z
    1     1.000000     0.000000     1.000000     0.000000     0.000000     0.000000     0.000000     0.000000
    2    -1.000000     0.000000     1.000000     0.000000     0.000000     0.000000     0.000000     0.000000
    3     1.000000   120.000000    -0.577350    -0.577350    -0.577350     0.000000     0.000000     0.000000
    4    -1.000000   120.000000    -0.577350    -0.577350    -0.577350     0.000000     0.000000     0.000000
    5     1.000000   120.000000     0.577350     0.577350     0.577350     0.000000     0.000000     0.000000
    6    -1.000000   120.000000     0.577350     0.577350     0.577350     0.000000     0.000000     0.000000
    7     1.000000    90.000000     0.000000     0.000000    -1.000000     0.000000     0.000000     0.000000
    8    -1.000000    90.000000     0.000000     0.000000    -1.000000     0.000000     0.000000     0.000000
    9     1.000000   180.000000     0.000000     0.707107     0.707107     0.000000     0.000000     0.000000
   10    -1.000000   180.000000     0.000000     0.707107     0.707107     0.000000     0.000000     0.000000
   11     1.000000    90.000000     0.000000     1.000000     0.000000     0.000000     0.000000     0.000000
   12    -1.000000    90.000000     0.000000     1.000000     0.000000     0.000000     0.000000     0.000000
   13     1.000000   180.000000     0.000000     0.000000     1.000000     0.000000     0.000000     0.000000
   14    -1.000000   180.000000     0.000000     0.000000     1.000000     0.000000     0.000000     0.000000
   15     1.000000   120.000000    -0.577350     0.577350     0.577350     0.000000     0.000000     0.000000
   16    -1.000000   120.000000    -0.577350     0.577350     0.577350     0.000000     0.000000     0.000000
   17     1.000000   120.000000    -0.577350     0.577350    -0.577350     0.000000     0.000000     0.000000
   18    -1.000000   120.000000    -0.577350     0.577350    -0.577350     0.000000     0.000000     0.000000
   19     1.000000    90.000000     0.000000     0.000000     1.000000     0.000000     0.000000     0.000000
   20    -1.000000    90.000000     0.000000     0.000000     1.000000     0.000000     0.000000     0.000000
   21     1.000000    90.000000    -1.000000     0.000000     0.000000     0.000000     0.000000     0.000000
   22    -1.000000    90.000000    -1.000000     0.000000     0.000000     0.000000     0.000000     0.000000
   23     1.000000   180.000000     0.707107     0.000000     0.707107     0.000000     0.000000     0.000000
   24    -1.000000   180.000000     0.707107     0.000000     0.707107     0.000000     0.000000     0.000000
   25     1.000000   120.000000     0.577350    -0.577350     0.577350     0.000000     0.000000     0.000000
   26    -1.000000   120.000000     0.577350    -0.577350     0.577350     0.000000     0.000000     0.000000
   27     1.000000   120.000000    -0.577350    -0.577350     0.577350     0.000000     0.000000     0.000000
   28    -1.000000   120.000000    -0.577350    -0.577350     0.577350     0.000000     0.000000     0.000000
   29     1.000000   180.000000     1.000000     0.000000     0.000000     0.000000     0.000000     0.000000
   30    -1.000000   180.000000     1.000000     0.000000     0.000000     0.000000     0.000000     0.000000
   31     1.000000    90.000000     0.000000    -1.000000     0.000000     0.000000     0.000000     0.000000
   32    -1.000000    90.000000     0.000000    -1.000000     0.000000     0.000000     0.000000     0.000000
   33     1.000000   180.000000     0.707107     0.707107     0.000000     0.000000     0.000000     0.000000
   34    -1.000000   180.000000     0.707107     0.707107     0.000000     0.000000     0.000000     0.000000
   35     1.000000    90.000000     1.000000     0.000000     0.000000     0.000000     0.000000     0.000000
   36    -1.000000    90.000000     1.000000     0.000000     0.000000     0.000000     0.000000     0.000000
   37     1.000000   120.000000     0.577350    -0.577350    -0.577350     0.000000     0.000000     0.000000
   38    -1.000000   120.000000     0.577350    -0.577350    -0.577350     0.000000     0.000000     0.000000
   39     1.000000   180.000000     0.000000     1.000000     0.000000     0.000000     0.000000     0.000000
   40    -1.000000   180.000000     0.000000     1.000000     0.000000     0.000000     0.000000     0.000000
   41     1.000000   120.000000     0.577350     0.577350    -0.577350     0.000000     0.000000     0.000000
   42    -1.000000   120.000000     0.577350     0.577350    -0.577350     0.000000     0.000000     0.000000
   43     1.000000   180.000000     0.000000    -0.707107     0.707107     0.000000     0.000000     0.000000
   44    -1.000000   180.000000     0.000000    -0.707107     0.707107     0.000000     0.000000     0.000000
   45     1.000000   180.000000     0.707107    -0.707107     0.000000     0.000000     0.000000     0.000000
   46    -1.000000   180.000000     0.707107    -0.707107     0.000000     0.000000     0.000000     0.000000
   47     1.000000   180.000000     0.707107     0.000000    -0.707107     0.000000     0.000000     0.000000
   48    -1.000000   180.000000     0.707107     0.000000    -0.707107     0.000000     0.000000     0.000000
 
 Subroutine IBZKPT returns following result:
 ===========================================
 
 Found      4 irreducible k-points:
 
 Following reciprocal coordinates:
            Coordinates               Weight
  0.125000  0.125000  0.125000      8.000000
  0.375000  0.125000  0.125000     24.000000
  0.375000  0.375000  0.125000     24.000000
  0.375000  0.375000  0.375000      8.000000
 
 Following cartesian coordinates:
            Coordinates               Weight
  0.044643  0.044643  0.044643      8.000000
  0.133929  0.044643  0.044643     24.000000
  0.133929  0.133929  0.044643     24.000000
  0.133929  0.133929  0.133929      8.000000
 


--------------------------------------------------------------------------------------------------------




 Dimension of arrays:
   k-points           NKPTS =      4   k-points in BZ     NKDIM =      4   number of bands    NBANDS=     14
   number of dos      NEDOS =    301   number of ions     NIONS =      2
   non local maximal  LDIM  =      6   non local SUM 2l+1 LMDIM =     18
   total plane-waves  NPLWV =   2744
   max r-space proj   IRMAX =      1   max aug-charges    IRDMAX=   4652
   dimension x,y,z NGX =    14 NGY =   14 NGZ =   14
   dimension x,y,z NGXF=    28 NGYF=   28 NGZF=   28
   support grid    NGXF=    28 NGYF=   28 NGZF=   28
   ions per type =               2
 NGX,Y,Z   is equivalent  to a cutoff of   8.31,  8.31,  8.31 a.u.
 NGXF,Y,Z  is equivalent  to a cutoff of  16.62, 16.62, 16.62 a.u.


 I would recommend the setting:
   dimension x,y,z NGX =    14 NGY =   14 NGZ =   14
 SYSTEM =  ToDo                                    
 POSCAR =  Poscar file generated with pyCMW        

 Startparameter for this run:
   NWRITE =      2    write-flag & timer
   PREC   = accura    normal or accurate (medium, high low for compatibility)
   ISTART =      0    job   : 0-new  1-cont  2-samecut
   ICHARG =      2    charge: 1-file 2-atom 10-const
   ISPIN  =      2    spin polarized calculation?
   LNONCOLLINEAR =      F non collinear calculations
   LSORBIT =      F    spin-orbit coupling
   INIWAV =      1    electr: 0-lowe 1-rand  2-diag
   LASPH  =      F    aspherical Exc in radial PAW
   METAGGA=      F    non-selfconsistent MetaGGA calc.

 Electronic Relaxation 1
   ENCUT  =  250.0 eV  18.37 Ry    4.29 a.u.   3.61  3.61  3.61*2*pi/ulx,y,z
   ENINI  =  250.0     initial cutoff
   ENAUG  =  511.4 eV  augmentation charge cutoff
   NELM   =     60;   NELMIN=  2; NELMDL= -5     # of ELM steps 
   EDIFF  = 0.1E-03   stopping-criterion for ELM
   LREAL  =      F    real-space projection
   NLSPLINE    = F    spline interpolate recip. space projectors
   LCOMPAT=      F    compatible to vasp.4.4
   GGA_COMPAT  = T    GGA compatible to vasp.4.4-vasp.4.6
   LMAXPAW     = -100 max onsite density
   LMAXMIX     =    2 max onsite mixed and CHGCAR
   VOSKOWN=      0    Vosko Wilk Nusair interpolation
   ROPT   =    0.00000
 Ionic relaxation
   EDIFFG = 0.1E-02   stopping-criterion for IOM
   NSW    =      0    number of steps for IOM
   NBLOCK =      1;   KBLOCK =      1    inner block; outer block 
   IBRION =     -1    ionic relax: 0-MD 1-quasi-New 2-CG
   NFREE  =      0    steps in history (QN), initial steepest desc. (CG)
   ISIF   =      2    stress and relaxation
   IWAVPR =      0    prediction:  0-non 1-charg 2-wave 3-comb
   ISYM   =      2    0-nonsym 1-usesym 2-fastsym
   LCORR  =      T    Harris-Foulkes like correction to forces

   POTIM  = 0.5000    time-step for ionic-motion
   TEIN   =    0.0    initial temperature
   TEBEG  =    0.0;   TEEND  =   0.0 temperature during run
   SMASS  =  -3.00    Nose mass-parameter (am)
   estimated Nose-frequenzy (Omega)   =  0.10E-29 period in steps =****** mass=  -0.179E-27a.u.
   SCALEE = 1.0000    scale energy and forces
   NPACO  =    256;   APACO  = 16.0  distance and # of slots for P.C.
   PSTRESS=    0.0 pullay stress

  Mass of Ions in am
   POMASS =  55.85
  Ionic Valenz
   ZVAL   =   8.00
  Atomic Wigner-Seitz radii
   RWIGS  =   1.30
  virtual crystal weights 
   VCA    =   1.00
   NELECT =      16.0000    total number of electrons
   NUPDOWN=      -1.0000    fix difference up-down

 DOS related values:
   EMIN   =  10.00;   EMAX   =-10.00  energy-range for DOS
   EFERMI =   0.00
   ISMEAR =     1;   SIGMA  =   0.20  broadening in eV -4-tet -1-fermi 0-gaus

 Electronic relaxation 2 (details)
   IALGO  =     68    algorithm
   LDIAG  =      T    sub-space diagonalisation (order eigenvalues)
   LSUBROT=      F    optimize rotation matrix (better conditioning)
   TURBO    =      0    0=normal 1=particle mesh
   IRESTART =      0    0=no restart 2=restart with 2 vectors
   NREBOOT  =      0    no. of reboots
   NMIN     =      0    reboot dimension
   EREF     =   0.00    reference energy to select bands
   IMIX   =      4    mixing-type and parameters
     AMIX     =   0.40;   BMIX     =  1.00
     AMIX_MAG =   1.60;   BMIX_MAG =  1.00
     AMIN     =   0.10
     WC   =   100.;   INIMIX=   1;  MIXPRE=   1;  MAXMIX= -45

 Intra band minimization:
   WEIMIN = 0.0000     energy-eigenvalue tresh-hold
   EBREAK =  0.18E-05  absolut break condition
   DEPER  =   0.30     relativ break condition  

   TIME   =   0.40     timestep for ELM

  volume/ion in A,a.u.               =      10.98        74.07
  Fermi-wavevector in a.u.,A,eV,Ry     =   1.473296  2.784126 29.532837  2.170602
  Thomas-Fermi vector in A             =   2.588207
 
 Write flags
   LWAVE  =      T    write WAVECAR
   LCHARG =      T    write CHGCAR
   LVTOT  =      F    write LOCPOT, total local potential
   LVHAR  =      F    write LOCPOT, Hartree potential only
   LELF   =      F    write electronic localiz. function (ELF)
   LORBIT =      0    0 simple, 1 ext, 2 COOP (PROOUT)


 Dipole corrections
   LMONO  =      F    monopole corrections only (constant potential shift)
   LDIPOL =      F    correct potential (dipole corrections)
   IDIPOL =      0    1-x, 2-y, 3-z, 4-all directions 
   EPSILON=  1.0000000 bulk dielectric constant

 Exchange correlation treatment:
   GGA     =    --    GGA type
   LEXCH   =     2    internal setting for exchange type
   VOSKOWN=      0    Vosko Wilk Nusair interpolation
   LHFCALC =     F    Hartree Fock is set to
   LHFONE  =     F    Hartree Fock one center treatment
   AEXX    =    0.0000 exact exchange contribution

 Linear response parameters
   LEPSILON=     F    determine dielectric tensor
   LRPA    =     F    only Hartree local field effects (RPA)
   LNABLA  =     F    use nabla operator in PAW spheres
   LVEL    =     F    velocity operator in full k-point grid
   LINTERFAST=   F  fast interpolation
   KINTER  =     0    interpolate to denser k-point grid
   CSHIFT  =0.1000    complex shift for real part using Kramers Kronig
   OMEGAMAX=  -1.0    maximum frequency
   DEG_THRESHOLD= 0.2000000E-02 threshold for treating states as degnerate
   RTIME   =    0.100 relaxation time in fs

 Orbital magnetization related:
   ORBITALMAG=     F  switch on orbital magnetization
   LCHIMAG   =     F  perturbation theory with respect to B field
   DQ        =  0.001000  dq finite difference perturbation B field



--------------------------------------------------------------------------------------------------------


 Static calculation
 charge density and potential will be updated during run
 spin polarized calculation
 RMM-DIIS sequential band-by-band and
  variant of blocked Davidson during initial phase
 perform sub-space diagonalisation
    before iterative eigenvector-optimisation
 modified Broyden-mixing scheme, WC =      100.0
 initial mixing is a Kerker type mixing with AMIX =  0.4000 and BMIX =      1.0000
 Hartree-type preconditioning will be used
 using additional bands            6
 reciprocal scheme for non local part
 use partial core corrections
 calculate Harris-corrections to forces 
   (improved forces if not selfconsistent)
 use of overlap-Matrix (Vanderbilt PP)
 Methfessel and Paxton  Order N= 1 SIGMA  =   0.20


--------------------------------------------------------------------------------------------------------


  energy-cutoff  :      250.00
  volume of cell :       21.95
      direct lattice vectors                 reciprocal lattice vectors
     2.800000000  0.000000000  0.000000000     0.357142857  0.000000000  0.000000000
     0.000000000  2.800000000  0.000000000     0.000000000  0.357142857  0.000000000
     0.000000000  0.000000000  2.800000000     0.000000000  0.000000000  0.357142857

  length of vectors
     2.800000000  2.800000000  2.800000000     0.357142857  0.357142857  0.357142857


 
 k-points in units of 2pi/SCALE and weight: Kpoints file generated with pyCMW       
   0.04464286  0.04464286  0.04464286       0.125
   0.13392857  0.04464286  0.04464286       0.375
   0.13392857  0.13392857  0.04464286       0.375
   0.13392857  0.13392857  0.13392857       0.125
 
 k-points in reciprocal lattice and weights: Kpoints file generated with pyCMW       
   0.12500000  0.12500000  0.12500000       0.125
   0.37500000  0.12500000  0.12500000       0.375
   0.37500000  0.37500000  0.12500000       0.375
   0.37500000  0.37500000  0.37500000       0.125
 
 position of ions in fractional coordinates (direct lattice) 
   0.00000000  0.00000000  0.00000000
   0.50000000  0.50000000  0.50000000
 
 position of ions in cartesian coordinates  (Angst):
   0.00000000  0.00000000  0.00000000
   1.40000000  1.40000000  1.40000000
 


--------------------------------------------------------------------------------------------------------


 k-point  1 :   0.1250 0.1250 0.1250  plane waves:     196
 k-point  2 :   0.3750 0.1250 0.1250  plane waves:     199
 k-point  3 :   0.3750 0.3750 0.1250  plane waves:     196
 k-point  4 :   0.3750 0.3750 0.3750  plane waves:     190

 maximum number of plane-waves:       199
 maximum index in each direction: 
   IXMAX=    3   IYMAX=    3   IZMAX=    3
   IXMIN=   -3   IYMIN=   -3   IZMIN=   -3

 NGX is ok and might be reduce to  14
 NGY is ok and might be reduce to  14
 NGZ is ok and might be reduce to  14

 total amount of memory used by VASP on root node    32497. kBytes
========================================================================

   base      :      30000. kBytes
   nonl-proj :        120. kBytes
   grid      :       1894. kBytes
   one-center:         62. kBytes
   wavefun   :        421. kBytes
 
     INWAV:  cpu time    0.0000: real time    0.0000
 Broyden mixing: mesh for mixing (old mesh)
   NGX =  7   NGY =  7   NGZ =  7
  (NGX  = 28   NGY  = 28   NGZ  = 28)
  gives a total of    343 points

 initial charge density was supplied:
 charge density of overlapping atoms calculated
 number of electron      16.0000000 magnetization       4.0000000
 keeping initial charge density in first step


--------------------------------------------------------------------------------------------------------


 Maximum index for augmentation-charges         4385 (set IRDMAX)


--------------------------------------------------------------------------------------------------------


 First call to EWALD:  gamma=   0.633
 Maximum number of real-space cells 3x 3x 3
 Maximum number of reciprocal cells 3x 3x 3

    FEWALD:  cpu time    0.0009: real time    0.0009


----------------------------------------- Iteration    1(   1)  ---------------------------------------


    POTLOK:  cpu time    0.0037: real time    0.0045
    SETDIJ:  cpu time    0.0190: real time    0.0093
     EDDAV:  cpu time    0.0977: real time    0.0540
       DOS:  cpu time    0.0062: real time    0.0006
    --------------------------------------------
      LOOP:  cpu time    0.1276: real time    0.0690

 eigenvalue-minimisations  :   246
 total energy-change (2. order) : 0.4419770E+02  (-0.5036724E+03)
 number of electron      16.0000000 magnetization       4.0000000
 augmentation part       16.0000000 magnetization       4.0000000

 Free energy of the ion-electron system (eV)
  ---------------------------------------------------
  alpha Z        PSCENC =       122.02745190
  Ewald energy   TEWEN  =     -1197.80999809
  -Hartree energ DENC   =      -216.86274298
  -exchange      EXHF   =         0.00000000
  -V(xc)+E(xc)   XCENC  =        10.08420759
  PAW double counting   =       957.29487082     -975.92714918
  entropy T*S    EENTRO =         0.00887991
  eigenvalues    EBANDS =       150.78493980
  atomic energy  EATOM  =      1194.59723597
  Solvation  Ediel_sol  =         0.00000000
  ---------------------------------------------------
  free energy    TOTEN  =        44.19769573 eV

  energy without entropy =       44.18881582  energy(sigma->0) =       44.19473576


--------------------------------------------------------------------------------------------------------




----------------------------------------- Iteration    1(   2)  ---------------------------------------


     EDDAV:  cpu time    0.0782: real time    0.0427
       DOS:  cpu time    0.0004: real time    0.0004
    --------------------------------------------
      LOOP:  cpu time    0.0793: real time    0.0435

 eigenvalue-minimisations  :   230
 total energy-change (2. order) :-0.6391547E+02  (-0.5776926E+02)
 number of electron      16.0000000 magnetization       4.0000000
 augmentation part       16.0000000 magnetization       4.0000000

 Free energy of the ion-electron system (eV)
  ---------------------------------------------------
  alpha Z        PSCENC =       122.02745190
  Ewald energy   TEWEN  =     -1197.80999809
  -Hartree energ DENC   =      -216.86274298
  -exchange      EXHF   =         0.00000000
  -V(xc)+E(xc)   XCENC  =        10.08420759
  PAW double counting   =       957.29487082     -975.92714918
  entropy T*S    EENTRO =        -0.01813100
  eigenvalues    EBANDS =        86.89648487
  atomic energy  EATOM  =      1194.59723597
  Solvation  Ediel_sol  =         0.00000000
  ---------------------------------------------------
  free energy    TOTEN  =       -19.71777011 eV

  energy without entropy =      -19.69963911  energy(sigma->0) =      -19.71172644


--------------------------------------------------------------------------------------------------------




----------------------------------------- Iteration    1(   3)  ---------------------------------------


     EDDAV:  cpu time    0.0898: real time    0.0465
       DOS:  cpu time    0.0004: real time    0.0004
    --------------------------------------------
      LOOP:  cpu time    0.0993: real time    0.0480

 eigenvalue-minimisations  :   260
 total energy-change (2. order) :-0.1148216E+01  (-0.1131050E+01)
 number of electron      16.0000000 magnetization       4.0000000
 augmentation part       16.0000000 magnetization       4.0000000

 Free energy of the ion-electron system (eV)
  ---------------------------------------------------
  alpha Z        PSCENC =       122.02745190
  Ewald energy   TEWEN  =     -1197.80999809
  -Hartree energ DENC   =      -216.86274298
  -exchange      EXHF   =         0.00000000
  -V(xc)+E(xc)   XCENC  =        10.08420759
  PAW double counting   =       957.29487082     -975.92714918
  entropy T*S    EENTRO =        -0.00829770
  eigenvalues    EBANDS =        85.73843600
  atomic energy  EATOM  =      1194.59723597
  Solvation  Ediel_sol  =         0.00000000
  ---------------------------------------------------
  free energy    TOTEN  =       -20.86598567 eV

  energy without entropy =      -20.85768797  energy(sigma->0) =      -20.86321977


--------------------------------------------------------------------------------------------------------




----------------------------------------- Iteration    1(   4)  ---------------------------------------


     EDDAV:  cpu time    0.0846: real time    0.0423
       DOS:  cpu time    0.0007: real time    0.0004
    --------------------------------------------
      LOOP:  cpu time    0.0905: real time    0.0440

 eigenvalue-minimisations  :   224
 total energy-change (2. order) :-0.5511611E-02  (-0.5511061E-02)
 number of electron      16.0000000 magnetization       4.0000000
 augmentation part       16.0000000 magnetization       4.0000000

 Free energy of the ion-electron system (eV)
  ---------------------------------------------------
  alpha Z        PSCENC =       122.02745190
  Ewald energy   TEWEN  =     -1197.80999809
  -Hartree energ DENC   =      -216.86274298
  -exchange      EXHF   =         0.00000000
  -V(xc)+E(xc)   XCENC  =        10.08420759
  PAW double counting   =       957.29487082     -975.92714918
  entropy T*S    EENTRO =        -0.00830125
  eigenvalues    EBANDS =        85.73292795
  atomic energy  EATOM  =      1194.59723597
  Solvation  Ediel_sol  =         0.00000000
  ---------------------------------------------------
  free energy    TOTEN  =       -20.87149728 eV

  energy without entropy =      -20.86319603  energy(sigma->0) =      -20.86873019


--------------------------------------------------------------------------------------------------------




----------------------------------------- Iteration    1(   5)  ---------------------------------------


     EDDAV:  cpu time    0.0954: real time    0.0479
       DOS:  cpu time    0.0008: real time    0.0004
    CHARGE:  cpu time    0.0196: real time    0.0105
    MIXING:  cpu time    0.0012: real time    0.0008
    --------------------------------------------
      LOOP:  cpu time    0.1186: real time    0.0607

 eigenvalue-minimisations  :   266
 total energy-change (2. order) :-0.7034508E-04  (-0.7034455E-04)
 number of electron      16.0000145 magnetization       3.1349091
 augmentation part        7.1680295 magnetization       2.1894365

 Broyden mixing:
  rms(total) = 0.12124E+01    rms(broyden)= 0.12082E+01
  rms(prec ) = 0.35267E+01
  weight for this iteration     100.00

 Free energy of the ion-electron system (eV)
  ---------------------------------------------------
  alpha Z        PSCENC =       122.02745190
  Ewald energy   TEWEN  =     -1197.80999809
  -Hartree energ DENC   =      -216.86274298
  -exchange      EXHF   =         0.00000000
  -V(xc)+E(xc)   XCENC  =        10.08420759
  PAW double counting   =       957.29487082     -975.92714918
  entropy T*S    EENTRO =        -0.00830163
  eigenvalues    EBANDS =        85.73285799
  atomic energy  EATOM  =      1194.59723597
  Solvation  Ediel_sol  =         0.00000000
  ---------------------------------------------------
  free energy    TOTEN  =       -20.87156762 eV

  energy without entropy =      -20.86326599  energy(sigma->0) =      -20.86880041


--------------------------------------------------------------------------------------------------------




----------------------------------------- Iteration    1(   6)  ---------------------------------------


    POTLOK:  cpu time    0.0067: real time    0.0034
    SETDIJ:  cpu time    0.0152: real time    0.0076
    EDDIAG:  cpu time    0.0238: real time    0.0121
  RMM-DIIS:  cpu time    0.0745: real time    0.0373
    ORTHCH:  cpu time    0.0007: real time    0.0004
       DOS:  cpu time    0.0008: real time    0.0004
    CHARGE:  cpu time    0.0170: real time    0.0085
    MIXING:  cpu time    0.0029: real time    0.0023
    --------------------------------------------
      LOOP:  cpu time    0.1427: real time    0.0725

 eigenvalue-minimisations  :   236
 total energy-change (2. order) : 0.2359498E+01  (-0.1411135E+01)
 number of electron      16.0000164 magnetization       4.1157043
 augmentation part        8.5035309 magnetization       3.2940741

 Broyden mixing:
  rms(total) = 0.51630E+00    rms(broyden)= 0.51500E+00
  rms(prec ) = 0.73827E+00
  weight for this iteration     100.00

 eigenvalues of (default mixing * dielectric matrix)
  average eigenvalue GAMMA=   0.6381
  0.6381

 Free energy of the ion-electron system (eV)
  ---------------------------------------------------
  alpha Z        PSCENC =       122.02745190
  Ewald energy   TEWEN  =     -1197.80999809
  -Hartree energ DENC   =      -183.53060527
  -exchange      EXHF   =         0.00000000
  -V(xc)+E(xc)   XCENC  =         8.34314156
  PAW double counting   =       957.84097568     -971.91381063
  entropy T*S    EENTRO =        -0.00533704
  eigenvalues    EBANDS =        51.93887601
  atomic energy  EATOM  =      1194.59723597
  Solvation  Ediel_sol  =         0.00000000
  ---------------------------------------------------
  free energy    TOTEN  =       -18.51206993 eV

  energy without entropy =      -18.50673289  energy(sigma->0) =      -18.51029091


--------------------------------------------------------------------------------------------------------




----------------------------------------- Iteration    1(   7)  ---------------------------------------


    POTLOK:  cpu time    0.0067: real time    0.0034
    SETDIJ:  cpu time    0.0150: real time    0.0075
    EDDIAG:  cpu time    0.0229: real time    0.0115
  RMM-DIIS:  cpu time    0.0713: real time    0.0357
    ORTHCH:  cpu time    0.0007: real time    0.0004
       DOS:  cpu time    0.0008: real time    0.0004
    CHARGE:  cpu time    0.0173: real time    0.0087
    MIXING:  cpu time    0.0021: real time    0.0016
    --------------------------------------------
      LOOP:  cpu time    0.1380: real time    0.0696

 eigenvalue-minimisations  :   225
 total energy-change (2. order) : 0.7412552E-01  (-0.6679240E-01)
 number of electron      16.0000159 magnetization       4.2255076
 augmentation part        8.2066014 magnetization       3.3984561

 Broyden mixing:
  rms(total) = 0.88253E-01    rms(broyden)= 0.88203E-01
  rms(prec ) = 0.24485E+00
  weight for this iteration     100.00

 eigenvalues of (default mixing * dielectric matrix)
  average eigenvalue GAMMA=   0.9436
  1.1480  0.7392

 Free energy of the ion-electron system (eV)
  ---------------------------------------------------
  alpha Z        PSCENC =       122.02745190
  Ewald energy   TEWEN  =     -1197.80999809
  -Hartree energ DENC   =      -187.80420974
  -exchange      EXHF   =         0.00000000
  -V(xc)+E(xc)   XCENC  =         9.36952921
  PAW double counting   =       992.98465783    -1010.67422896
  entropy T*S    EENTRO =        -0.01671828
  eigenvalues    EBANDS =        58.88833577
  atomic energy  EATOM  =      1194.59723597
  Solvation  Ediel_sol  =         0.00000000
  ---------------------------------------------------
  free energy    TOTEN  =       -18.43794441 eV

  energy without entropy =      -18.42122612  energy(sigma->0) =      -18.43237165


--------------------------------------------------------------------------------------------------------




----------------------------------------- Iteration    1(   8)  ---------------------------------------


    POTLOK:  cpu time    0.0068: real time    0.0034
    SETDIJ:  cpu time    0.0150: real time    0.0075
    EDDIAG:  cpu time    0.0225: real time    0.0113
  RMM-DIIS:  cpu time    0.0728: real time    0.0364
    ORTHCH:  cpu time    0.0007: real time    0.0004
       DOS:  cpu time    0.0008: real time    0.0004
    CHARGE:  cpu time    0.0170: real time    0.0085
    MIXING:  cpu time    0.0022: real time    0.0016
    --------------------------------------------
      LOOP:  cpu time    0.1388: real time    0.0700

 eigenvalue-minimisations  :   230
 total energy-change (2. order) : 0.2482781E-01  (-0.8603227E-03)
 number of electron      16.0000160 magnetization       4.2514329
 augmentation part        8.2273189 magnetization       3.4166002

 Broyden mixing:
  rms(total) = 0.43803E-01    rms(broyden)= 0.43642E-01
  rms(prec ) = 0.11959E+00
  weight for this iteration     100.00

 eigenvalues of (default mixing * dielectric matrix)
  average eigenvalue GAMMA=   0.9325
  1.3567  0.7204  0.7204

 Free energy of the ion-electron system (eV)
  ---------------------------------------------------
  alpha Z        PSCENC =       122.02745190
  Ewald energy   TEWEN  =     -1197.80999809
  -Hartree energ DENC   =      -185.91944557
  -exchange      EXHF   =         0.00000000
  -V(xc)+E(xc)   XCENC  =         9.35301187
  PAW double counting   =      1016.23618001    -1035.49602572
  entropy T*S    EENTRO =        -0.01510242
  eigenvalues    EBANDS =        58.61357545
  atomic energy  EATOM  =      1194.59723597
  Solvation  Ediel_sol  =         0.00000000
  ---------------------------------------------------
  free energy    TOTEN  =       -18.41311659 eV

  energy without entropy =      -18.39801417  energy(sigma->0) =      -18.40808245


--------------------------------------------------------------------------------------------------------




----------------------------------------- Iteration    1(   9)  ---------------------------------------


    POTLOK:  cpu time    0.0068: real time    0.0034
    SETDIJ:  cpu time    0.0157: real time    0.0079
    EDDIAG:  cpu time    0.0226: real time    0.0113
  RMM-DIIS:  cpu time    0.0686: real time    0.0343
    ORTHCH:  cpu time    0.0007: real time    0.0004
       DOS:  cpu time    0.0008: real time    0.0004
    CHARGE:  cpu time    0.0170: real time    0.0085
    MIXING:  cpu time    0.0010: real time    0.0005
    --------------------------------------------
      LOOP:  cpu time    0.1340: real time    0.0671

 eigenvalue-minimisations  :   215
 total energy-change (2. order) : 0.1000910E-01  (-0.9223158E-04)
 number of electron      16.0000160 magnetization       4.2041297
 augmentation part        8.2344730 magnetization       3.3713024

 Broyden mixing:
  rms(total) = 0.37309E-01    rms(broyden)= 0.37275E-01
  rms(prec ) = 0.57499E-01
  weight for this iteration     100.00

 eigenvalues of (default mixing * dielectric matrix)
  average eigenvalue GAMMA=   1.1685
  2.0529  1.1610  0.8278  0.6323

 Free energy of the ion-electron system (eV)
  ---------------------------------------------------
  alpha Z        PSCENC =       122.02745190
  Ewald energy   TEWEN  =     -1197.80999809
  -Hartree energ DENC   =      -184.64576143
  -exchange      EXHF   =         0.00000000
  -V(xc)+E(xc)   XCENC  =         9.34802547
  PAW double counting   =      1034.56154640    -1055.01069837
  entropy T*S    EENTRO =        -0.01459251
  eigenvalues    EBANDS =        58.54368318
  atomic energy  EATOM  =      1194.59723597
  Solvation  Ediel_sol  =         0.00000000
  ---------------------------------------------------
  free energy    TOTEN  =       -18.40310749 eV

  energy without entropy =      -18.38851498  energy(sigma->0) =      -18.39824332


--------------------------------------------------------------------------------------------------------




----------------------------------------- Iteration    1(  10)  ---------------------------------------


    POTLOK:  cpu time    0.0067: real time    0.0034
    SETDIJ:  cpu time    0.0150: real time    0.0075
    EDDIAG:  cpu time    0.0226: real time    0.0113
  RMM-DIIS:  cpu time    0.0577: real time    0.0289
    ORTHCH:  cpu time    0.0007: real time    0.0004
       DOS:  cpu time    0.0008: real time    0.0004
    CHARGE:  cpu time    0.0171: real time    0.0086
    MIXING:  cpu time    0.0010: real time    0.0005
    --------------------------------------------
      LOOP:  cpu time    0.1236: real time    0.0623

 eigenvalue-minimisations  :   177
 total energy-change (2. order) : 0.1667287E-02  (-0.4602008E-04)
 number of electron      16.0000160 magnetization       4.2125079
 augmentation part        8.2366604 magnetization       3.3787469

 Broyden mixing:
  rms(total) = 0.43438E-02    rms(broyden)= 0.43419E-02
  rms(prec ) = 0.10047E-01
  weight for this iteration     100.00

 eigenvalues of (default mixing * dielectric matrix)
  average eigenvalue GAMMA=   1.1699
  2.4471  1.1155  0.9162  0.7166  0.6543

 Free energy of the ion-electron system (eV)
  ---------------------------------------------------
  alpha Z        PSCENC =       122.02745190
  Ewald energy   TEWEN  =     -1197.80999809
  -Hartree energ DENC   =      -183.93438031
  -exchange      EXHF   =         0.00000000
  -V(xc)+E(xc)   XCENC  =         9.26480159
  PAW double counting   =      1045.72686093    -1066.80615505
  entropy T*S    EENTRO =        -0.01484283
  eigenvalues    EBANDS =        58.54758569
  atomic energy  EATOM  =      1194.59723597
  Solvation  Ediel_sol  =         0.00000000
  ---------------------------------------------------
  free energy    TOTEN  =       -18.40144020 eV

  energy without entropy =      -18.38659737  energy(sigma->0) =      -18.39649259


--------------------------------------------------------------------------------------------------------




----------------------------------------- Iteration    1(  11)  ---------------------------------------


    POTLOK:  cpu time    0.0067: real time    0.0034
    SETDIJ:  cpu time    0.0151: real time    0.0076
    EDDIAG:  cpu time    0.0224: real time    0.0112
  RMM-DIIS:  cpu time    0.0417: real time    0.0209
    ORTHCH:  cpu time    0.0007: real time    0.0004
       DOS:  cpu time    0.0008: real time    0.0004
    --------------------------------------------
      LOOP:  cpu time    0.0892: real time    0.0450

 eigenvalue-minimisations  :   114
 total energy-change (2. order) : 0.3215945E-04  (-0.7350157E-05)
 number of electron      16.0000160 magnetization       4.2125079
 augmentation part        8.2366604 magnetization       3.3787469

 Free energy of the ion-electron system (eV)
  ---------------------------------------------------
  alpha Z        PSCENC =       122.02745190
  Ewald energy   TEWEN  =     -1197.80999809
  -Hartree energ DENC   =      -183.83915508
  -exchange      EXHF   =         0.00000000
  -V(xc)+E(xc)   XCENC  =         9.26722720
  PAW double counting   =      1046.60330903    -1067.69926683
  entropy T*S    EENTRO =        -0.01488953
  eigenvalues    EBANDS =        58.46667740
  atomic energy  EATOM  =      1194.59723597
  Solvation  Ediel_sol  =         0.00000000
  ---------------------------------------------------
  free energy    TOTEN  =       -18.40140804 eV

  energy without entropy =      -18.38651852  energy(sigma->0) =      -18.39644487


--------------------------------------------------------------------------------------------------------




 average (electrostatic) potential at core
  the test charge radii are     1.0103
  (the norm of the test charge is              1.0000)
       1 -43.6705       2 -43.6705
 
 
 
 E-fermi :   5.9613     XC(G=0): -13.6120     alpha+bet :-14.0459


 spin component 1

 k-point     1 :       0.1250    0.1250    0.1250
  band No.  band energies     occupation 
      1      -1.7129      1.00000
      2       1.4497      1.00000
      3       1.4497      1.00000
      4       3.4397      1.00000
      5       3.4397      1.00000
      6       4.2855      1.00000
      7       4.8869      1.00000
      8       4.9941      1.00000
      9       4.9941      1.00000
     10       5.9784      0.42801
     11       5.9784      0.42801
     12      14.8142      0.00000
     13      14.8142      0.00000
     14      16.0020      0.00000

 k-point     2 :       0.3750    0.1250    0.1250
  band No.  band energies     occupation 
      1       0.3602      1.00000
      2       1.9263      1.00000
      3       2.2715      1.00000
      4       3.1296      1.00000
      5       3.3397      1.00000
      6       3.7374      1.00000
      7       4.4917      1.00000
      8       4.7906      1.00000
      9       5.2051      1.00000
     10       5.6193      1.01812
     11       5.8162      0.96854
     12       8.8659     -0.00000
     13      18.0608      0.00000
     14      18.7155      0.00000

 k-point     3 :       0.3750    0.3750    0.1250
  band No.  band energies     occupation 
      1       1.0727      1.00000
      2       1.4699      1.00000
      3       2.6008      1.00000
      4       2.7853      1.00000
      5       3.6193      1.00000
      6       3.9979      1.00000
      7       4.9192      1.00000
      8       5.0616      1.00000
      9       5.2420      1.00000
     10       6.0004      0.33819
     11       6.8568     -0.00000
     12       9.3578     -0.00000
     13      13.8257      0.00000
     14      16.8395      0.00000

 k-point     4 :       0.3750    0.3750    0.3750
  band No.  band energies     occupation 
      1       2.1156      1.00000
      2       2.4791      1.00000
      3       2.4791      1.00000
      4       2.6488      1.00000
      5       2.8829      1.00000
      6       2.8829      1.00000
      7       5.2604      1.00000
      8       5.2604      1.00000
      9       5.3124      1.00002
     10       5.3124      1.00002
     11       9.5962     -0.00000
     12      13.1719      0.00000
     13      13.1719      0.00000
     14      15.8280      0.00000

 spin component 2

 k-point     1 :       0.1250    0.1250    0.1250
  band No.  band energies     occupation 
      1      -1.3251      1.00000
      2       2.9885      1.00000
      3       2.9885      1.00000
      4       5.1205      1.00000
      5       5.1205      1.00000
      6       6.0473      0.17061
      7       6.6175     -0.00002
      8       7.1948     -0.00000
      9       7.1948     -0.00000
     10       7.8895     -0.00000
     11       7.8895     -0.00000
     12      15.6260      0.00000
     13      15.6260      0.00000
     14      16.6959      0.00000

 k-point     2 :       0.3750    0.1250    0.1250
  band No.  band energies     occupation 
      1       0.8749      1.00000
      2       3.1060      1.00000
      3       3.9019      1.00000
      4       4.7833      1.00000
      5       4.9347      1.00000
      6       5.3849      1.00018
      7       6.4939     -0.00054
      8       6.5954     -0.00003
      9       7.0862     -0.00000
     10       7.7451     -0.00000
     11       7.7537     -0.00000
     12      10.2319     -0.00000
     13      19.0056      0.00000
     14      19.4810      0.00000

 k-point     3 :       0.3750    0.3750    0.1250
  band No.  band energies     occupation 
      1       2.0269      1.00000
      2       2.7553      1.00000
      3       4.1631      1.00000
      4       4.3453      1.00000
      5       5.0194      1.00000
      6       5.1149      1.00000
      7       6.9402     -0.00000
      8       7.1808     -0.00000
      9       7.5048     -0.00000
     10       7.9861     -0.00000
     11       8.5705     -0.00000
     12      10.5760     -0.00000
     13      15.0373      0.00000
     14      17.8337      0.00000

 k-point     4 :       0.3750    0.3750    0.3750
  band No.  band energies     occupation 
      1       3.5142      1.00000
      2       3.6033      1.00000
      3       3.9215      1.00000
      4       3.9215      1.00000
      5       4.2166      1.00000
      6       4.2166      1.00000
      7       7.4928     -0.00000
      8       7.4928     -0.00000
      9       7.5070     -0.00000
     10       7.5070     -0.00000
     11      11.0116     -0.00000
     12      14.2556      0.00000
     13      14.2556      0.00000
     14      16.7123      0.00000


--------------------------------------------------------------------------------------------------------


 soft charge-density along one line, spin component           1
         0         1         2         3         4         5         6         7         8         9
x     7.7634    0.0000    0.0000   -0.0000   -0.3295    0.0000    0.0000    0.0000    0.0082    0.0000
x    -0.0000   -0.0000    0.0016   -0.0000    0.0000    0.0000
y     7.7634    0.0000    0.0000   -0.0000   -0.3295    0.0000    0.0000    0.0000    0.0082    0.0000
y    -0.0000   -0.0000    0.0016   -0.0000    0.0000    0.0000
z     7.7634    0.0000    0.0000   -0.0000   -0.3295    0.0000    0.0000    0.0000    0.0082    0.0000
z    -0.0000   -0.0000    0.0016   -0.0000    0.0000    0.0000
 total charge-density along one line
x    16.0000    0.0000   -0.0000    0.0000    3.1095    0.0000    0.0000    0.0000    0.0259    0.0000
x     0.0000   -0.0000    0.0066    0.0000    0.0000    0.0000   -0.0012    0.0000   -0.0000   -0.0000
x    -0.0003    0.0000    0.0000   -0.0000    0.0001    0.0000    0.0000   -0.0000    0.0001    0.0000
y    16.0000    0.0000   -0.0000    0.0000    3.1095   -0.0000    0.0000    0.0000    0.0259    0.0000
y     0.0000   -0.0000    0.0066    0.0000    0.0000   -0.0000   -0.0012   -0.0000   -0.0000   -0.0000
y    -0.0003   -0.0000    0.0000    0.0000    0.0001   -0.0000    0.0000    0.0000    0.0001    0.0000
z    16.0000    0.0000   -0.0000    0.0000    3.1095   -0.0000   -0.0000    0.0000    0.0259    0.0000
z     0.0000   -0.0000    0.0066   -0.0000   -0.0000   -0.0000   -0.0012   -0.0000   -0.0000   -0.0000
z    -0.0003    0.0000    0.0000   -0.0000    0.0001    0.0000    0.0000   -0.0000    0.0001    0.0000
 
 soft charge-density along one line, spin component           2
         0         1         2         3         4         5         6         7         8         9
x     0.8338    0.0000    0.0000   -0.0000   -0.0003    0.0000   -0.0000    0.0000    0.0298   -0.0000
x    -0.0000   -0.0000    0.0012   -0.0000    0.0000    0.0000
y     0.8338    0.0000    0.0000   -0.0000   -0.0003    0.0000   -0.0000    0.0000    0.0298   -0.0000
y    -0.0000   -0.0000    0.0012   -0.0000    0.0000    0.0000
z     0.8338    0.0000    0.0000   -0.0000   -0.0003    0.0000   -0.0000    0.0000    0.0298   -0.0000
z    -0.0000   -0.0000    0.0012   -0.0000    0.0000    0.0000
 total charge-density along one line
x     4.2125    0.0000   -0.0000    0.0000    1.4369   -0.0000    0.0000    0.0000    0.1267    0.0000
x     0.0000   -0.0000    0.0153    0.0000    0.0000    0.0000   -0.0006    0.0000   -0.0000   -0.0000
x    -0.0004    0.0000    0.0000   -0.0000    0.0001    0.0000    0.0000   -0.0000    0.0001    0.0000
y     4.2125    0.0000   -0.0000    0.0000    1.4369   -0.0000    0.0000    0.0000    0.1267    0.0000
y     0.0000    0.0000    0.0153   -0.0000    0.0000    0.0000   -0.0006   -0.0000   -0.0000   -0.0000
y    -0.0004    0.0000    0.0000   -0.0000    0.0001   -0.0000    0.0000   -0.0000    0.0001    0.0000
z     4.2125    0.0000   -0.0000    0.0000    1.4369   -0.0000    0.0000    0.0000    0.1267    0.0000
z    -0.0000   -0.0000    0.0153    0.0000   -0.0000   -0.0000   -0.0006    0.0000   -0.0000   -0.0000
z    -0.0004   -0.0000   -0.0000   -0.0000    0.0001    0.0000    0.0000   -0.0000    0.0001   -0.0000
 
 pseudopotential strength for first ion, spin component:           1
 -5.476  -0.000   0.000   0.000   0.000  -0.661   0.000  -0.000
 -0.000  -5.476   0.000  -0.000  -0.000   0.000  -0.661  -0.000
  0.000   0.000  -5.603  -0.000  -0.000  -0.000  -0.000  -0.622
  0.000  -0.000  -0.000  -5.476  -0.000  -0.000   0.000   0.000
  0.000  -0.000  -0.000  -0.000  -5.603  -0.000   0.000   0.000
 -0.661   0.000  -0.000  -0.000  -0.000   0.931  -0.000   0.000
  0.000  -0.661  -0.000   0.000   0.000  -0.000   0.931   0.000
 -0.000  -0.000  -0.622   0.000   0.000   0.000   0.000   0.919
 -0.000   0.000   0.000  -0.661   0.000   0.000  -0.000  -0.000
 -0.000   0.000   0.000   0.000  -0.622   0.000  -0.000  -0.000
  0.000  -0.000  -0.000   0.000  -0.000   0.000  -0.000  -0.000
 -0.000   0.000   0.000  -0.000   0.000   0.000  -0.000  -0.000
  0.000   0.000   0.000   0.000   0.000  -0.000  -0.000  -0.000
  0.000  -0.000   0.000   0.000  -0.000   0.000   0.000  -0.000
  0.000   0.000  -0.000   0.000   0.000   0.000   0.000   0.000
 -0.000  -0.000  -0.000  -0.000  -0.000   0.000   0.000   0.000
 -0.000   0.000   0.000  -0.000   0.000   0.000  -0.000   0.000
 -0.000  -0.000   0.000  -0.000  -0.000   0.000   0.000  -0.000
 pseudopotential strength for first ion, spin component:           2
 -4.197  -0.000   0.000   0.000   0.000  -1.053   0.000  -0.000
 -0.000  -4.197   0.000   0.000   0.000   0.000  -1.053  -0.000
  0.000   0.000  -4.059  -0.000   0.000  -0.000  -0.000  -1.094
  0.000   0.000  -0.000  -4.197  -0.000  -0.000  -0.000   0.000
  0.000   0.000   0.000  -0.000  -4.059  -0.000   0.000  -0.000
 -1.053   0.000  -0.000  -0.000  -0.000   1.049  -0.000   0.000
  0.000  -1.053  -0.000  -0.000   0.000  -0.000   1.049   0.000
 -0.000  -0.000  -1.094   0.000  -0.000   0.000   0.000   1.061
 -0.000  -0.000   0.000  -1.053   0.000   0.000   0.000  -0.000
 -0.000   0.000  -0.000   0.000  -1.094   0.000  -0.000   0.000
  0.000  -0.000   0.000   0.000   0.000  -0.000  -0.000  -0.000
 -0.000   0.000  -0.000  -0.000  -0.000   0.000  -0.000   0.000
  0.000   0.000   0.000   0.000   0.000  -0.000  -0.000  -0.000
  0.000  -0.000   0.000   0.000  -0.000   0.000   0.000  -0.000
 -0.000   0.000  -0.000   0.000   0.000   0.000   0.000   0.000
 -0.000  -0.000  -0.000  -0.000  -0.000   0.000   0.000   0.000
 -0.000   0.000  -0.000  -0.000   0.000   0.000  -0.000   0.000
 -0.000  -0.000   0.000  -0.000  -0.000  -0.000   0.000  -0.000
 total augmentation occupancy for first ion, spin component:           1
  1.460  -0.000  -0.000  -0.000  -0.000   0.210   0.000   0.000  -0.000  -0.000   0.000  -0.000   0.000   0.000   0.000   0.000
  0.000   1.460   0.000  -0.000   0.000   0.000   0.210   0.000  -0.000  -0.000  -0.000   0.000   0.000   0.000  -0.000  -0.000
 -0.000  -0.000   1.313  -0.000   0.000   0.000  -0.000   0.082  -0.000   0.000  -0.000   0.000  -0.000  -0.000   0.000   0.000
 -0.000  -0.000   0.000   1.460  -0.000  -0.000   0.000   0.000   0.210   0.000  -0.000   0.000   0.000   0.000   0.000   0.000
  0.000   0.000   0.000  -0.000   1.313   0.000  -0.000  -0.000  -0.000   0.082   0.000   0.000  -0.000  -0.000   0.000   0.000
  0.210   0.000  -0.000  -0.000  -0.000   0.167  -0.000  -0.000  -0.000  -0.000  -0.000   0.000   0.000   0.000   0.000   0.000
 -0.000   0.210  -0.000  -0.000  -0.000   0.000   0.167   0.000  -0.000   0.000  -0.000  -0.000   0.000  -0.000   0.000   0.000
 -0.000   0.000   0.082   0.000  -0.000   0.000  -0.000   0.215  -0.000   0.000  -0.000   0.000   0.000   0.000   0.000   0.000
 -0.000  -0.000  -0.000   0.210  -0.000   0.000   0.000   0.000   0.167  -0.000  -0.000  -0.000   0.000   0.000  -0.000   0.000
  0.000  -0.000   0.000   0.000   0.082   0.000   0.000   0.000  -0.000   0.215  -0.000  -0.000   0.000  -0.000   0.000   0.000
  0.000  -0.000  -0.000   0.000   0.000  -0.000  -0.000  -0.000   0.000  -0.000   1.468  -0.318   0.000  -0.000   0.000   0.000
 -0.000  -0.000   0.000   0.000   0.000   0.000   0.000   0.000  -0.000  -0.000  -0.318   0.094  -0.000   0.000   0.000   0.000
  0.000   0.000   0.000   0.000   0.000   0.000   0.000   0.000   0.000   0.000   0.000  -0.000   0.235  -0.000  -0.000  -0.013
  0.000   0.000  -0.000   0.000  -0.000   0.000  -0.000   0.000   0.000   0.000  -0.000   0.000  -0.000   0.235  -0.000   0.000
  0.000  -0.000  -0.000   0.000  -0.000   0.000   0.000   0.000  -0.000   0.000   0.000   0.000   0.000   0.000   0.235  -0.000
  0.000  -0.000  -0.000   0.000   0.000   0.000   0.000  -0.000   0.000   0.000   0.000   0.000  -0.013   0.000   0.000   0.001
  0.000  -0.000   0.000  -0.000  -0.000   0.000   0.000   0.000   0.000  -0.000   0.000   0.000  -0.000  -0.013  -0.000  -0.000
  0.000  -0.000   0.000  -0.000  -0.000   0.000   0.000   0.000   0.000   0.000   0.000   0.000   0.000   0.000  -0.013  -0.000
 total augmentation occupancy for first ion, spin component:           2
  0.296   0.000  -0.000  -0.000  -0.000  -0.184  -0.000   0.000  -0.000   0.000  -0.000   0.000   0.000   0.000   0.000   0.000
 -0.000   0.296  -0.000  -0.000   0.000   0.000  -0.184   0.000  -0.000   0.000  -0.000   0.000   0.000   0.000   0.000  -0.000
 -0.000   0.000   0.578  -0.000   0.000   0.000  -0.000  -0.268   0.000   0.000   0.000  -0.000   0.000  -0.000   0.000   0.000
 -0.000   0.000  -0.000   0.296   0.000   0.000  -0.000  -0.000  -0.184  -0.000  -0.000   0.000   0.000   0.000   0.000   0.000
  0.000   0.000   0.000  -0.000   0.578   0.000   0.000   0.000  -0.000  -0.268   0.000  -0.000  -0.000   0.000  -0.000  -0.000
 -0.184   0.000   0.000   0.000   0.000   0.004   0.000  -0.000   0.000  -0.000   0.000   0.000   0.000   0.000   0.000   0.000
 -0.000  -0.184  -0.000   0.000   0.000   0.000   0.004   0.000   0.000  -0.000  -0.000   0.000  -0.000  -0.000   0.000  -0.000
 -0.000   0.000  -0.268   0.000   0.000  -0.000   0.000   0.029   0.000  -0.000  -0.000  -0.000  -0.000  -0.000   0.000   0.000
  0.000   0.000  -0.000  -0.184  -0.000   0.000   0.000  -0.000   0.004   0.000   0.000   0.000   0.000  -0.000  -0.000   0.000
 -0.000  -0.000   0.000   0.000  -0.268  -0.000   0.000   0.000  -0.000   0.029   0.000   0.000   0.000   0.000   0.000  -0.000
  0.000   0.000   0.000  -0.000   0.000  -0.000  -0.000  -0.000   0.000   0.000   0.014   0.080   0.000   0.000   0.000  -0.000
 -0.000   0.000  -0.000   0.000  -0.000   0.000   0.000  -0.000   0.000   0.000   0.080  -0.032   0.000   0.000   0.000   0.000
  0.000   0.000   0.000   0.000   0.000   0.000  -0.000  -0.000   0.000  -0.000   0.000   0.000  -0.016   0.000   0.000   0.002
  0.000   0.000  -0.000   0.000   0.000   0.000  -0.000  -0.000  -0.000  -0.000   0.000   0.000  -0.000  -0.016  -0.000  -0.000
  0.000   0.000   0.000   0.000  -0.000   0.000   0.000   0.000  -0.000   0.000   0.000   0.000   0.000   0.000  -0.016  -0.000
  0.000  -0.000  -0.000  -0.000   0.000   0.000  -0.000   0.000   0.000   0.000  -0.000   0.000   0.002  -0.000  -0.000  -0.000
  0.000  -0.000  -0.000  -0.000   0.000  -0.000   0.000   0.000  -0.000   0.000  -0.000   0.000   0.000   0.002   0.000  -0.000
  0.000  -0.000  -0.000  -0.000   0.000  -0.000   0.000   0.000  -0.000   0.000  -0.000   0.000   0.000  -0.000   0.002  -0.000


------------------------ aborting loop because EDIFF is reached ----------------------------------------


    CHARGE:  cpu time    0.0184: real time    0.0093
    FORLOC:  cpu time    0.0008: real time    0.0004
    FORNL :  cpu time    0.0331: real time    0.0166
    STRESS:  cpu time    0.0897: real time    0.0449
    FORCOR:  cpu time    0.0114: real time    0.0079
    FORHAR:  cpu time    0.0039: real time    0.0019
    MIXING:  cpu time    0.0011: real time    0.0006
    OFIELD:  cpu time    0.0000: real time    0.0000

  FORCE on cell =-STRESS in cart. coord.  units (eV):
  Direction    XX          YY          ZZ          XY          YZ          ZX
  --------------------------------------------------------------------------------------
  Alpha Z   122.02745   122.02745   122.02745
  Ewald    -399.26997  -399.26997  -399.26997     0.00000    -0.00000    -0.00000
  Hartree    61.29681    61.29681    61.29681    -0.00000    -0.00000    -0.00000
  E(xc)     -79.08621   -79.08621   -79.08621     0.00000    -0.00000     0.00000
  Local     119.45877   119.45877   119.45877    -0.00000     0.00000    -0.00000
  n-local   -55.45945   -53.45575   -50.47807     2.52243    -0.35880     1.09817
  augment    76.60391    76.60391    76.60391    -0.00000     0.00000     0.00000
  Kinetic   150.77179   148.93781   146.70817     3.17916    -0.83147     0.59994
  Fock        0.00000     0.00000     0.00000     0.00000     0.00000     0.00000
  -------------------------------------------------------------------------------------
  Total      -3.29441    -3.29441    -3.29441    -0.00000    -0.00000    -0.00000
  in kB    -240.44384  -240.44384  -240.44384    -0.00000    -0.00000    -0.00000
  external pressure =     -240.44 kB  Pullay stress =        0.00 kB


 VOLUME and BASIS-vectors are now :
 -----------------------------------------------------------------------------
  energy-cutoff  :      250.00
  volume of cell :       21.95
      direct lattice vectors                 reciprocal lattice vectors
     2.800000000  0.000000000  0.000000000     0.357142857  0.000000000  0.000000000
     0.000000000  2.800000000  0.000000000     0.000000000  0.357142857  0.000000000
     0.000000000  0.000000000  2.800000000     0.000000000  0.000000000  0.357142857

  length of vectors
     2.800000000  2.800000000  2.800000000     0.357142857  0.357142857  0.357142857


 FORCES acting on ions
    electron-ion (+dipol)            ewald-force                    non-local-force                 convergence-correction
 -----------------------------------------------------------------------------------------------
   -.430E-13 -.707E-14 -.469E-15   0.432E-14 0.119E-14 -.110E-14   0.000E+00 0.000E+00 0.000E+00   -.219E-13 0.497E-14 0.972E-14
   0.171E-12 0.210E-12 0.214E-12   -.429E-14 -.309E-15 0.596E-15   0.000E+00 0.000E+00 0.414E-23   -.332E-13 -.144E-13 -.184E-14
 -----------------------------------------------------------------------------------------------
   0.128E-12 0.203E-12 0.213E-12   0.334E-16 0.880E-15 -.507E-15   0.000E+00 0.000E+00 0.414E-23   -.551E-13 -.945E-14 0.788E-14
 
 
 POSITION                                       TOTAL-FORCE (eV/Angst)
 -----------------------------------------------------------------------------------
      0.00000      0.00000      0.00000        -0.000000     -0.000000      0.000000
      1.40000      1.40000      1.40000         0.000000      0.000000      0.000000
 -----------------------------------------------------------------------------------
    total drift:                                0.000000      0.000000      0.000000


--------------------------------------------------------------------------------------------------------



  FREE ENERGIE OF THE ION-ELECTRON SYSTEM (eV)
  ---------------------------------------------------
  free  energy   TOTEN  =       -18.40140804 eV

  energy  without entropy=      -18.38651852  energy(sigma->0) =      -18.39644487
 


--------------------------------------------------------------------------------------------------------


    POTLOK:  cpu time    0.0223: real time    0.0112


--------------------------------------------------------------------------------------------------------


 writing wavefunctions
     LOOP+:  cpu time    1.5775: real time    0.8055
    4ORBIT:  cpu time    0.0003: real time    0.0002

volume of typ            1:    84.2 %
 
total charge     
 
# of ion     s       p       d       tot
----------------------------------------
  1        0.429   0.468   6.187   7.085
  2        0.429   0.468   6.187   7.085
------------------------------------------------
tot         0.86    0.94   12.37   14.17
 
magnetization (x)
 
# of ion     s       p       d       tot
----------------------------------------
  1       -0.002  -0.034   2.147   2.111
  2       -0.002  -0.034   2.147   2.111
------------------------------------------------
tot        -0.00   -0.07    4.29    4.22
 

 total amount of memory used by VASP on root node    32497. kBytes
========================================================================

   base      :      30000. kBytes
   nonl-proj :        120. kBytes
   grid      :       1894. kBytes
   one-center:         62. kBytes
   wavefun   :        421. kBytes
 
  
  
 General timing and accounting informations for this job:
 ========================================================
  
                  Total CPU time used (sec):        1.980
                            User time (sec):        1.902
                          System time (sec):        0.078
                         Elapsed time (sec):        1.190
  
                   Maximum memory used (kb):    24162304.
                   Average memory used (kb):           0.
  
                          Minor page faults:         3483
                          Major page faults:         2617
                 Voluntary context switches:           16
