 vasp.5.2.2 15Apr09 complex 
 executed on             LinuxIFC date 2011.05.04  15:55:49
 serial version


--------------------------------------------------------------------------------------------------------


 INCAR:
 POTCAR:    US H                                  
 POTCAR:    US Ag                                 
 POTCAR:    US H                                  
   VRHFIN =H: ultrasoft test                                                    
   LEXCH  = CA                                                                  
   EATOM  =    12.1324 eV,     .8917 Ry                                         
   GGA    =     -.5221    -.5561     .0015    -.3854 eV                         
                                                                                
   TITEL  = US H                                                                
   LULTRA =        T    use ultrasoft PP ?                                      
   IUNSCR =        0    unscreen: 0-lin 1-nonlin 2-no                           
   RPACOR =     .000    partial core radius                                     
   POMASS =    1.000; ZVAL   =    1.000    mass and valenz                      
   RCORE  =    1.250    outmost cutoff radius                                   
   RWIGS  =     .570; RWIGS  =     .302    wigner-seitz radius (au A)           
   ENMAX  =  200.000; ENMIN  =  200.000 eV  200 eV set by hand                  
   EAUG   =  400.000    set by hand                                             
                                                                                
   RCLOC  =     .654    cutoff for local pot                                    
   LCOR   =        T    correct aug charges                                     
   RMAX   =    3.000    core radius for proj-oper                               
   QCUT   =   -3.834; QGAM   =    7.668    optimization parameters              
                                                                                
   Description                                                                  
     l     E      TYP  RCUT    TYP  RCUT                                        
     0   .000     15   .800    23  1.250                                        
     0   .500     15   .800    23  1.250                                        
     1  -.200     15   .800    23  1.250                                        
  local pseudopotential read in
  atomic valenz-charges read in
  non local Contribution for L=                        0  read in
    real space projection operators read in
  non local Contribution for L=                        0  read in
    real space projection operators read in
  non local Contribution for L=                        1  read in
    real space projection operators read in
    augmentation charges read in

   number of l-projection  operators is LMAX  =                        3
   number of lm-projection operators is LMMAX =                        5

 POTCAR:    US Ag                                 
   VRHFIN =Ag : s1 d10                                                          
   LEXCH  = CA                                                                  
   EATOM  =  1281.8324 eV,   94.2120 Ry                                         
   GGA    =    -9.0034   -8.0194    2.3343   -8.0102 eV                         
                                                                                
   TITEL  = US Ag                                                               
   LULTRA =        T    use ultrasoft PP ?                                      
   IUNSCR =        1    unscreen: 0-lin 1-nonlin 2-no                           
   RPACOR =    1.130    partial core radius                                     
   POMASS =  107.868; ZVAL   =   11.000    mass and valenz                      
   RCORE  =    2.840    outmost cutoff radius                                   
   RWIGS  =    2.840; RWIGS  =    1.503    wigner-seitz radius (au A)           
   ENMAX  =  180.602; ENMIN  =  135.451 eV                                      
   EAUG   =  304.176                                                            
                                                                                
   RCLOC  =    1.962    cutoff for local pot                                    
   LCOR   =        T    correct aug charges                                     
   RMAX   =    3.431    core radius for proj-oper                               
   QCUT   =   -3.643; QGAM   =    7.287    optimization parameters              
                                                                                
   Description                                                                  
     l     E      TYP  RCUT    TYP  RCUT                                        
     2   .000      7  2.300    23  2.840                                        
     2   .000      7  2.300    23  2.840                                        
     0   .000     15  2.530    23  2.530                                        
     0   .000     15  2.530    23  2.530                                        
     1  -.200     15  2.530    23  2.840                                        
     1   .000     15  2.530    23  2.840                                        
     3   .000      7   .000     0   .000                                        
  local pseudopotential read in
  partial core-charges read in
  atomic valenz-charges read in
  non local Contribution for L=                        2  read in
    real space projection operators read in
  non local Contribution for L=                        2  read in
    real space projection operators read in
  non local Contribution for L=                        0  read in
    real space projection operators read in
  non local Contribution for L=                        0  read in
    real space projection operators read in
  non local Contribution for L=                        1  read in
    real space projection operators read in
  non local Contribution for L=                        1  read in
    real space projection operators read in
    augmentation charges read in

   number of l-projection  operators is LMAX  =                        6
   number of lm-projection operators is LMMAX =                       18

  US H                                  :
 energy of atom  1       EATOM=  -12.1324
 kinetic energy error for atom=    0.0236 (will be added to EATOM!!)
  US Ag                                 :
 energy of atom  2       EATOM=-1281.8324
 kinetic energy error for atom=    0.0091 (will be added to EATOM!!)


 POSCAR: fcc Fe                                  
  positions in cartesian coordinates
  velocities in direct lattice
  No initial velocities read in
 exchange correlation table for  LEXCH =        2
   RHO(1)=    0.500       N(1)  =     2000
   RHO(2)=  100.500       N(2)  =     4000



--------------------------------------------------------------------------------------------------------


 ion  position               nearest neighbor table
   1  0.250  0.000  0.000-   2 2.04   3 2.04   4 2.04   6 2.04  11 2.04  16 2.04
   2  0.000  0.000  0.000-   1 2.04   3 2.89   4 2.89   5 2.89   7 2.89   8 2.89  11 2.89  13 2.89
                            16 2.89  17 2.89  19 2.89  24 2.89  29 2.89
   3  0.250  0.250  0.000-   1 2.04   2 2.89   4 2.89   5 2.89   6 2.89   9 2.89  10 2.89  12 2.89
                            16 2.89  17 2.89  18 2.89  25 2.89  28 2.89
   4  0.250  0.000  0.250-   1 2.04   2 2.89   3 2.89   5 2.89   6 2.89   9 2.89  11 2.89  13 2.89
                            14 2.89  15 2.89  21 2.89  22 2.89  27 2.89
   5  0.000  0.250  0.250-   2 2.89   3 2.89   4 2.89   7 2.89   8 2.89  10 2.89  12 2.89  14 2.89
                            15 2.89  20 2.89  23 2.89  26 2.89
   6  0.500  0.000  0.000-   1 2.04   3 2.89   4 2.89   7 2.89   8 2.89   9 2.89  11 2.89  16 2.89
                            19 2.89  21 2.89  24 2.89  25 2.89  33 2.89
   7  0.750  0.250  0.000-   2 2.89   5 2.89   6 2.89   8 2.89   9 2.89  10 2.89  17 2.89  18 2.89
                            20 2.89  24 2.89  25 2.89  32 2.89
   8  0.750  0.000  0.250-   2 2.89   5 2.89   6 2.89   7 2.89   9 2.89  13 2.89  14 2.89  19 2.89
                            21 2.89  22 2.89  23 2.89  31 2.89
   9  0.500  0.250  0.250-   3 2.89   4 2.89   6 2.89   7 2.89   8 2.89  12 2.89  15 2.89  18 2.89
                            20 2.89  22 2.89  23 2.89  30 2.89
  10  0.000  0.500  0.000-   3 2.89   5 2.89   7 2.89  11 2.89  12 2.89  13 2.89  17 2.89  19 2.89
                            20 2.89  28 2.89  29 2.89  32 2.89
  11  0.250  0.750  0.000-   1 2.04   2 2.89   4 2.89   6 2.89  10 2.89  12 2.89  13 2.89  16 2.89
                            18 2.89  21 2.89  28 2.89  29 2.89  33 2.89
  12  0.250  0.500  0.250-   3 2.89   5 2.89   9 2.89  10 2.89  11 2.89  13 2.89  15 2.89  18 2.89
                            21 2.89  26 2.89  27 2.89  30 2.89
  13  0.000  0.750  0.250-   2 2.89   4 2.89   8 2.89  10 2.89  11 2.89  12 2.89  14 2.89  19 2.89
                            20 2.89  26 2.89  27 2.89  31 2.89
  14  0.000  0.000  0.500-   4 2.89   5 2.89   8 2.89  13 2.89  15 2.89  16 2.89  17 2.89  23 2.89
                            24 2.89  27 2.89  29 2.89  31 2.89
  15  0.250  0.250  0.500-   4 2.89   5 2.89   9 2.89  12 2.89  14 2.89  16 2.89  17 2.89  22 2.89
                            25 2.89  26 2.89  28 2.89  30 2.89
  16  0.250  0.000  0.750-   1 2.04   2 2.89   3 2.89   6 2.89  11 2.89  14 2.89  15 2.89  17 2.89
                            22 2.89  25 2.89  27 2.89  29 2.89  33 2.89
  17  0.000  0.250  0.750-   2 2.89   3 2.89   7 2.89  10 2.89  14 2.89  15 2.89  16 2.89  23 2.89
                            24 2.89  26 2.89  28 2.89  32 2.89
  18  0.500  0.500  0.000-   3 2.89   7 2.89   9 2.89  11 2.89  12 2.89  19 2.89  20 2.89  21 2.89
                            25 2.89  28 2.89  32 2.89  33 2.89
  19  0.750  0.750  0.000-   2 2.89   6 2.89   8 2.89  10 2.89  13 2.89  18 2.89  20 2.89  21 2.89
                            24 2.89  29 2.89  32 2.89  33 2.89
  20  0.750  0.500  0.250-   5 2.89   7 2.89   9 2.89  10 2.89  13 2.89  18 2.89  19 2.89  21 2.89
                            23 2.89  26 2.89  30 2.89  31 2.89
  21  0.500  0.750  0.250-   4 2.89   6 2.89   8 2.89  11 2.89  12 2.89  18 2.89  19 2.89  20 2.89
                            22 2.89  27 2.89  30 2.89  31 2.89
  22  0.500  0.000  0.500-   4 2.89   8 2.89   9 2.89  15 2.89  16 2.89  21 2.89  23 2.89  24 2.89
                            25 2.89  27 2.89  31 2.89  33 2.89
  23  0.750  0.250  0.500-   5 2.89   8 2.89   9 2.89  14 2.89  17 2.89  20 2.89  22 2.89  24 2.89
                            25 2.89  26 2.89  30 2.89  32 2.89
  24  0.750  0.000  0.750-   2 2.89   6 2.89   7 2.89  14 2.89  17 2.89  19 2.89  22 2.89  23 2.89
                            25 2.89  29 2.89  31 2.89  33 2.89
  25  0.500  0.250  0.750-   3 2.89   6 2.89   7 2.89  15 2.89  16 2.89  18 2.89  22 2.89  23 2.89
                            24 2.89  28 2.89  30 2.89  32 2.89
  26  0.000  0.500  0.500-   5 2.89  12 2.89  13 2.89  15 2.89  17 2.89  20 2.89  23 2.89  27 2.89
                            28 2.89  29 2.89  31 2.89  32 2.89
  27  0.250  0.750  0.500-   4 2.89  12 2.89  13 2.89  14 2.89  16 2.89  21 2.89  22 2.89  26 2.89
                            28 2.89  29 2.89  30 2.89  33 2.89
  28  0.250  0.500  0.750-   3 2.89  10 2.89  11 2.89  15 2.89  17 2.89  18 2.89  25 2.89  26 2.89
                            27 2.89  29 2.89  30 2.89  33 2.89
  29  0.000  0.750  0.750-   2 2.89  10 2.89  11 2.89  14 2.89  16 2.89  19 2.89  24 2.89  26 2.89
                            27 2.89  28 2.89  31 2.89  32 2.89
  30  0.500  0.500  0.500-   9 2.89  12 2.89  15 2.89  20 2.89  21 2.89  23 2.89  25 2.89  27 2.89
                            28 2.89  31 2.89  32 2.89  33 2.89
  31  0.750  0.750  0.500-   8 2.89  13 2.89  14 2.89  20 2.89  21 2.89  22 2.89  24 2.89  26 2.89
                            29 2.89  30 2.89  32 2.89  33 2.89
  32  0.750  0.500  0.750-   7 2.89  10 2.89  17 2.89  18 2.89  19 2.89  23 2.89  25 2.89  26 2.89
                            29 2.89  30 2.89  31 2.89  33 2.89
  33  0.500  0.750  0.750-   6 2.89  11 2.89  16 2.89  18 2.89  19 2.89  22 2.89  24 2.89  27 2.89
                            28 2.89  30 2.89  31 2.89  32 2.89

  LATTYP: Found a simple cubic cell.
 ALAT       =     8.1720000000
  
  Lattice vectors:
  
 A1 = (   8.1720000000,   0.0000000000,   0.0000000000)
 A2 = (   0.0000000000,   8.1720000000,   0.0000000000)
 A3 = (   0.0000000000,   0.0000000000,   8.1720000000)
 Subroutine PRICEL returns:
 Original cell was already a primitive cell.
 

Analysis of symmetry for initial positions (statically):

 Routine SETGRP: Setting up the symmetry group for a 
 simple cubic supercell.


 Subroutine GETGRP returns: Found 48 space group operations
 (whereof  8 operations were pure point group operations)
 out of a pool of 48 trial point group operations.


The static configuration has the point symmetry C_4v.
 The point group associated with its full space group is O_h .

Analysis of symmetry for dynamics (positions and initial velocities):

 Subroutine DYNSYM returns: Found 48 space group operations
 (whereof  8 operations were pure point group operations)
 out of a pool of 48 trial space group operations
 (whereof  8 operations were pure point group operations)
 and found also     1 'primitive' translations


The dynamic configuration has the point symmetry C_4v.
 The point group associated with its full space group is O_h .


 KPOINTS: K-Points                                

Automatic generation of k-mesh.
 
 Subroutine IBZKPT returns following result:
 ===========================================
 
 Found     10 irreducible k-points:
 
 Following reciprocal coordinates:
            Coordinates               Weight
  0.083333  0.083333  0.083333      8.000000
  0.250000  0.083333  0.083333     24.000000
  0.416667  0.083333  0.083333     24.000000
  0.250000  0.250000  0.083333     24.000000
  0.416667  0.250000  0.083333     48.000000
  0.416667  0.416667  0.083333     24.000000
  0.250000  0.250000  0.250000      8.000000
  0.416667  0.250000  0.250000     24.000000
  0.416667  0.416667  0.250000     24.000000
  0.416667  0.416667  0.416667      8.000000
 
 Following cartesian coordinates:
            Coordinates               Weight
  0.041667  0.041667  0.041667      8.000000
  0.125000  0.041667  0.041667     24.000000
  0.208333  0.041667  0.041667     24.000000
  0.125000  0.125000  0.041667     24.000000
  0.208333  0.125000  0.041667     48.000000
  0.208333  0.208333  0.041667     24.000000
  0.125000  0.125000  0.125000      8.000000
  0.208333  0.125000  0.125000     24.000000
  0.208333  0.208333  0.125000     24.000000
  0.208333  0.208333  0.208333      8.000000
 


--------------------------------------------------------------------------------------------------------




 Dimension of arrays:
   k-points           NKPTS =     10   k-points in BZ     NKDIM =     10   number of bands    NBANDS=    200
   number of dos      NEDOS =    301   number of ions     NIONS =     33
   non local maximal  LDIM  =      6   non local SUM 2l+1 LMDIM =     18
   total plane-waves  NPLWV = 110592
   max r-space proj   IRMAX =   5129   max aug-charges    IRDMAX=  24848
   dimension x,y,z NGX =    48 NGY =   48 NGZ =   48
   dimension x,y,z NGXF=    96 NGYF=   96 NGZF=   96
   support grid    NGXF=    96 NGYF=   96 NGZF=   96
   ions per type =               1  32
 NGX,Y,Z   is equivalent  to a cutoff of   9.76,  9.76,  9.76 a.u.
 NGXF,Y,Z  is equivalent  to a cutoff of  19.53, 19.53, 19.53 a.u.


 I would recommend the setting:
   dimension x,y,z NGX =    44 NGY =   44 NGZ =   44
 SYSTEM =  Fe: fcc, NM                             
 POSCAR =  fcc Fe                                  

 Startparameter for this run:
   NWRITE =      2    write-flag & timer
   PREC   = accura    medium, high low
   ISTART =      0    job   : 0-new  1-cont  2-samecut
   ICHARG =      2    charge: 1-file 2-atom 10-const
   ISPIN  =      1    spin polarized calculation?
   LNONCOLLINEAR =      F non collinear calculations
   LSORBIT =      F    spin-orbit coupling
   INIWAV =      1    electr: 0-lowe 1-rand  2-diag
   LASPH  =      F    aspherical Exc in radial PAW
   METAGGA=      F    non-selfconsistent MetaGGA calc.

 Electronic Relaxation 1
   ENCUT  =  270.0 eV  19.84 Ry    4.45 a.u.  10.95 10.95 10.95*2*pi/ulx,y,z
   ENINI  =  270.0     initial cutoff
   ENAUG  =  400.0 eV  augmentation charge cutoff
   NELM   =    100;   NELMIN=  2; NELMDL= -5     # of ELM steps 
   EDIFF  = 0.1E-04   stopping-criterion for ELM
   LREAL  =      T    real-space projection
   LCOMPAT=      F    compatible to vasp.4.4
   LREAL_COMPAT= F    compatible to vasp.4.5.1-3
   GGA_COMPAT  = T    GGA compatible to vasp.4.4-vasp.4.6
   LMAXPAW     = -100 max onsite density
   LMAXMIX     =    2 max onsite mixed and CHGCAR
   VOSKOWN=      0    Vosko Wilk Nusair interpolation
   ROPT   =    0.00000   0.00000
 Ionic relaxation
   EDIFFG = -.1E-01   stopping-criterion for IOM
   NSW    =    100    number of steps for IOM
   NBLOCK =      1;   KBLOCK =    100    inner block; outer block 
   IBRION =      1    ionic relax: 0-MD 1-quasi-New 2-CG
   NFREE  =      0    steps in history (QN), initial steepest desc. (CG)
   ISIF   =      2    stress and relaxation
   IWAVPR =     11    prediction:  0-non 1-charg 2-wave 3-comb
   ISYM   =      1    0-nonsym 1-usesym 2-fastsym
   LCORR  =      T    Harris-Foulkes like correction to forces

   POTIM  = 0.5000    time-step for ionic-motion
   TEIN   =    0.0    initial temperature
   TEBEG  =    0.0;   TEEND  =   0.0 temperature during run
   SMASS  =  -3.00    Nose mass-parameter (am)
   estimated Nose-frequenzy (Omega)   =  0.10E-29 period in steps =****** mass=  -0.153E-26a.u.
   NPACO  =    256;   APACO  = 16.0  distance and # of slots for P.C.
   PSTRESS=    0.0 pullay stress

  Mass of Ions in am
   POMASS =   1.00107.87
  Ionic Valenz
   ZVAL   =   1.00 11.00
  Atomic Wigner-Seitz radii
   RWIGS  =  -1.00 -1.00
   NELECT =     358.0000    total number of electrons
   NUPDOWN=      -1.0000    fix difference up-down

 DOS related values:
   EMIN   =  10.00;   EMAX   =-10.00  energy-range for DOS
   EFERMI =   0.00
   ISMEAR =     2;   SIGMA  =   0.10  broadening in eV -4-tet -1-fermi 0-gaus

 Electronic relaxation 2 (details)
   IALGO  =     68    algorithm
   LDIAG  =      T    sub-space diagonalisation
   IMIX   =      4    mixing-type and parameters
     AMIX     =   0.80;   BMIX     =  1.00
     AMIX_MAG =   3.20;   BMIX_MAG =  1.00
     AMIN     =   0.10
     WC   =   100.;   INIMIX=   1;  MIXPRE=   1

 Intra band minimization:
   WEIMIN = 0.0010     energy-eigenvalue tresh-hold
   EBREAK =  0.13E-07  absolut break condition
   DEPER  =   0.30     relativ break condition  

   TIME   =   0.40     timestep for ELM

  volume/ion in A,a.u.               =      16.54       111.60
  Fermi-wavevector in a.u.,A,eV,Ry     =   1.422462  2.688064 27.530021  2.023399
  Thomas-Fermi vector in A             =   2.543164

 Write flags
   LWAVE  =      F    write WAVECAR
   LCHARG =      T    write CHGCAR
   LVTOT  =      T    write LOCPOT, local potential
   LELF   =      T    write electronic localiz. function (ELF)
   LORBIT =      0    0 simple, 1 ext, 2 COOP (PROOUT)


 Dipole corrections
   LMONO  =      F    monopole corrections only (constant potential shift)
   LDIPOL =      F    correct potential (dipole corrections)
   IDIPOL =      0    1-x, 2-y, 3-z, 4-all directions 
   EPSILON=  1.0000000 bulk dielectric constant

 Exchange correlation treatment:
   GGA     =    --    GGA type
   LEXCH   =     2    internal setting for exchange type
   VOSKOWN=      0    Vosko Wilk Nusair interpolation
   LHFCALC =     F    Hartree Fock is set to
   LHFONE  =     F    Hartree Fock one center treatment
   AEXX    =    0.0000 exact exchange contribution

 Linear response parameters
   LEPSILON=     F    determine dielectric tensor
   LRPA    =     F    only Hartree local field effects (RPA)
   LNABLA  =     F    use nabla operator in PAW spheres
   LVEL    =     F    velocity operator in full k-point grid
   LINTERFAST=   F  fast interpolation
   KINTER  =     0    interpolate to denser k-point grid
   CSHIFT  =0.1000    complex shift for real part using Kramers Kronig
   OMEGAMAX=  -1.0    maximum frequency

 Orbital magnetization related:
   ORBITALMAG=     F  switch on orbital magnetization
   LCHIMAG   =     F  perturbation theory with respect to B field



--------------------------------------------------------------------------------------------------------


 quasi-Newton-method for relaxation of ions
 charge density and potential will be updated during run
 non-spin polarized calculation
 RMM-DIIS sequential band-by-band and
  variant of blocked Davidson during initial phase
 perform sub-space diagonalisation
    before iterative eigenvector-optimisation
 modified Broyden-mixing scheme, WC =      100.0
 initial mixing is a Kerker type mixing with AMIX =  0.8000 and BMIX =      1.0000
 Hartree-type preconditioning will be used
 using additional bands                        21
 real space projection scheme for non local part
 use partial core corrections
 calculate Harris-corrections to forces 
   (improved forces if not selfconsistent)
 use of overlap-Matrix (Vanderbilt PP)
 Methfessel and Paxton  Order N= 2 SIGMA  =   0.10


--------------------------------------------------------------------------------------------------------


  energy-cutoff  :      270.00
  volume of cell :      545.74
      direct lattice vectors                 reciprocal lattice vectors
     8.172000000  0.000000000  0.000000000     0.122369065  0.000000000  0.000000000
     0.000000000  8.172000000  0.000000000     0.000000000  0.122369065  0.000000000
     0.000000000  0.000000000  8.172000000     0.000000000  0.000000000  0.122369065

  length of vectors
     8.172000000  8.172000000  8.172000000     0.122369065  0.122369065  0.122369065



 k-points in units of 2pi/SCALE and weight: K-Points                                
   0.04166667  0.04166667  0.04166667       0.037
   0.12500000  0.04166667  0.04166667       0.111
   0.20833333  0.04166667  0.04166667       0.111
   0.12500000  0.12500000  0.04166667       0.111
   0.20833333  0.12500000  0.04166667       0.222
   0.20833333  0.20833333  0.04166667       0.111
   0.12500000  0.12500000  0.12500000       0.037
   0.20833333  0.12500000  0.12500000       0.111
   0.20833333  0.20833333  0.12500000       0.111
   0.20833333  0.20833333  0.20833333       0.037

 k-points in reciprocal lattice and weights: K-Points                                
   0.08333333  0.08333333  0.08333333       0.037
   0.25000000  0.08333333  0.08333333       0.111
   0.41666667  0.08333333  0.08333333       0.111
   0.25000000  0.25000000  0.08333333       0.111
   0.41666667  0.25000000  0.08333333       0.222
   0.41666667  0.41666667  0.08333333       0.111
   0.25000000  0.25000000  0.25000000       0.037
   0.41666667  0.25000000  0.25000000       0.111
   0.41666667  0.41666667  0.25000000       0.111
   0.41666667  0.41666667  0.41666667       0.037

 position of ions in fractional coordinates (direct lattice) 
   0.25000000  0.00000000  0.00000000
   0.00000000  0.00000000  0.00000000
   0.25000000  0.25000000  0.00000000
   0.25000000  0.00000000  0.25000000
   0.00000000  0.25000000  0.25000000
   0.50000000  0.00000000  0.00000000
   0.75000000  0.25000000  0.00000000
   0.75000000  0.00000000  0.25000000
   0.50000000  0.25000000  0.25000000
   0.00000000  0.50000000  0.00000000
   0.25000000  0.75000000  0.00000000
   0.25000000  0.50000000  0.25000000
   0.00000000  0.75000000  0.25000000
   0.00000000  0.00000000  0.50000000
   0.25000000  0.25000000  0.50000000
   0.25000000  0.00000000  0.75000000
   0.00000000  0.25000000  0.75000000
   0.50000000  0.50000000  0.00000000
   0.75000000  0.75000000  0.00000000
   0.75000000  0.50000000  0.25000000
   0.50000000  0.75000000  0.25000000
   0.50000000  0.00000000  0.50000000
   0.75000000  0.25000000  0.50000000
   0.75000000  0.00000000  0.75000000
   0.50000000  0.25000000  0.75000000
   0.00000000  0.50000000  0.50000000
   0.25000000  0.75000000  0.50000000
   0.25000000  0.50000000  0.75000000
   0.00000000  0.75000000  0.75000000
   0.50000000  0.50000000  0.50000000
   0.75000000  0.75000000  0.50000000
   0.75000000  0.50000000  0.75000000
   0.50000000  0.75000000  0.75000000

 position of ions in cartesian coordinates  (Angst):
   2.04300000  0.00000000  0.00000000
   0.00000000  0.00000000  0.00000000
   2.04300000  2.04300000  0.00000000
   2.04300000  0.00000000  2.04300000
   0.00000000  2.04300000  2.04300000
   4.08600000  0.00000000  0.00000000
   6.12900000  2.04300000  0.00000000
   6.12900000  0.00000000  2.04300000
   4.08600000  2.04300000  2.04300000
   0.00000000  4.08600000  0.00000000
   2.04300000  6.12900000  0.00000000
   2.04300000  4.08600000  2.04300000
   0.00000000  6.12900000  2.04300000
   0.00000000  0.00000000  4.08600000
   2.04300000  2.04300000  4.08600000
   2.04300000  0.00000000  6.12900000
   0.00000000  2.04300000  6.12900000
   4.08600000  4.08600000  0.00000000
   6.12900000  6.12900000  0.00000000
   6.12900000  4.08600000  2.04300000
   4.08600000  6.12900000  2.04300000
   4.08600000  0.00000000  4.08600000
   6.12900000  2.04300000  4.08600000
   6.12900000  0.00000000  6.12900000
   4.08600000  2.04300000  6.12900000
   0.00000000  4.08600000  4.08600000
   2.04300000  6.12900000  4.08600000
   2.04300000  4.08600000  6.12900000
   0.00000000  6.12900000  6.12900000
   4.08600000  4.08600000  4.08600000
   6.12900000  6.12900000  4.08600000
   6.12900000  4.08600000  6.12900000
   4.08600000  6.12900000  6.12900000



--------------------------------------------------------------------------------------------------------


 k-point  1 :  0.08330.08330.0833  plane waves:    5497
 k-point  2 :  0.25000.08330.0833  plane waves:    5485
 k-point  3 :  0.41670.08330.0833  plane waves:    5496
 k-point  4 :  0.25000.25000.0833  plane waves:    5490
 k-point  5 :  0.41670.25000.0833  plane waves:    5487
 k-point  6 :  0.41670.41670.0833  plane waves:    5491
 k-point  7 :  0.25000.25000.2500  plane waves:    5497
 k-point  8 :  0.41670.25000.2500  plane waves:    5515
 k-point  9 :  0.41670.41670.2500  plane waves:    5517
 k-point 10 :  0.41670.41670.4167  plane waves:    5520

 maximum number of plane-waves:    5520
 maximal index in each direction: 
   IXMAX= 10   IYMAX= 10   IZMAX= 10
   IXMIN=-11   IYMIN=-11   IZMIN=-11

 NGX is ok and might be reduce to  44
 NGY is ok and might be reduce to  44
 NGZ is ok and might be reduce to  44

 total amount of memory used by VASP on root node 308568. kBytes
========================================================================

   base      :    30000. kBytes
   nonlr-proj:    28080. kBytes
   grid      :    54743. kBytes
   one-center:      513. kBytes
   wavefun   :   195232. kBytes

 Broyden mixing: mesh for mixing (old mesh)
   NGX = 21   NGY = 21   NGZ = 21
  (NGX  = 96   NGY  = 96   NGZ  = 96)
  gives a total of   9261 points

 initial charge density was supplied:
 charge density of overlapping atoms calculated
 number of electron  353.0000000 magnetization 
 keeping initial charge density in first step


--------------------------------------------------------------------------------------------------------


 Maximum index for non-local projection operator                      4945
 Maximum index for augmentation-charges                     23847 (set IRDMAX)


--------------------------------------------------------------------------------------------------------


 First call to EWALD:  gamma=   0.217
 Maximum number of real-space cells 3x 3x 3
 Maximum number of reciprocal cells 3x 3x 3

    FEWALD:  cpu time    0.02: real time    0.02
   RESPFUN:  cpu time    0.00: real time    0.00


----------------------------------------- Iteration    1(   1)  ---------------------------------------


    POTLOK:  cpu time    0.36: real time    0.37
    SETDIJ:  cpu time    1.31: real time    1.32
     EDDAV:  cpu time  456.06: real time  456.08
       DOS:  cpu time    0.01: real time    0.01
    --------------------------------------------
      LOOP:  cpu time  457.74: real time  457.78

 eigenvalue-minimisations  :  4024
 total energy-change (2. order) : 0.2227999E+04  (-0.1047985E+05)
 number of electron  353.0000000 magnetization 
 augmentation part   353.0000000 magnetization 

 Free energy of the ion-electron system (eV)
  ---------------------------------------------------
  alpha Z        PSCENC =      3871.48951558
  Ewald energy   TEWEN  =    -31326.37545034
  -1/2 Hartree   DENC   =     -4791.08628044
  -exchange  EXHF       =         0.00000000
  -V(xc)+E(xc)   XCENC  =     -8607.09628694
  PAW double counting   =         0.00000000        0.00000000
  entropy T*S    EENTRO =         0.00306600
  eigenvalues    EBANDS =      2050.61042102
  atomic energy  EATOM  =     41030.45412133
  ---------------------------------------------------
  free energy    TOTEN  =      2227.99910621 eV

  energy without entropy =     2227.99604021  energy(sigma->0) =     2227.99833971


--------------------------------------------------------------------------------------------------------




----------------------------------------- Iteration    1(   2)  ---------------------------------------


     EDDAV:  cpu time  457.22: real time  457.20
       DOS:  cpu time    0.01: real time    0.01
    --------------------------------------------
      LOOP:  cpu time  457.23: real time  457.21

 eigenvalue-minimisations  :  4000
 total energy-change (2. order) :-0.2183432E+04  (-0.2122002E+04)
 number of electron  353.0000000 magnetization 
 augmentation part   353.0000000 magnetization 

 Free energy of the ion-electron system (eV)
  ---------------------------------------------------
  alpha Z        PSCENC =      3871.48951558
  Ewald energy   TEWEN  =    -31326.37545034
  -1/2 Hartree   DENC   =     -4791.08628044
  -exchange  EXHF       =         0.00000000
  -V(xc)+E(xc)   XCENC  =     -8607.09628694
  PAW double counting   =         0.00000000        0.00000000
  entropy T*S    EENTRO =        -0.00307973
  eigenvalues    EBANDS =      -132.81502341
  atomic energy  EATOM  =     41030.45412133
  ---------------------------------------------------
  free energy    TOTEN  =        44.56751604 eV

  energy without entropy =       44.57059577  energy(sigma->0) =       44.56828598


--------------------------------------------------------------------------------------------------------




----------------------------------------- Iteration    1(   3)  ---------------------------------------


     EDDAV:  cpu time  420.27: real time  420.25
       DOS:  cpu time    0.01: real time    0.01
    --------------------------------------------
      LOOP:  cpu time  420.28: real time  420.26

 eigenvalue-minimisations  :  4048
 total energy-change (2. order) :-0.1566663E+03  (-0.1529214E+03)
 number of electron  353.0000000 magnetization 
 augmentation part   353.0000000 magnetization 

 Free energy of the ion-electron system (eV)
  ---------------------------------------------------
  alpha Z        PSCENC =      3871.48951558
  Ewald energy   TEWEN  =    -31326.37545034
  -1/2 Hartree   DENC   =     -4791.08628044
  -exchange  EXHF       =         0.00000000
  -V(xc)+E(xc)   XCENC  =     -8607.09628694
  PAW double counting   =         0.00000000        0.00000000
  entropy T*S    EENTRO =         0.01093950
  eigenvalues    EBANDS =      -289.49538110
  atomic energy  EATOM  =     41030.45412133
  ---------------------------------------------------
  free energy    TOTEN  =      -112.09882242 eV

  energy without entropy =     -112.10976192  energy(sigma->0) =     -112.10155730


--------------------------------------------------------------------------------------------------------




----------------------------------------- Iteration    1(   4)  ---------------------------------------


     EDDAV:  cpu time  454.32: real time  454.29
       DOS:  cpu time    0.01: real time    0.01
    --------------------------------------------
      LOOP:  cpu time  454.32: real time  454.30

 eigenvalue-minimisations  :  4232
 total energy-change (2. order) :-0.3264913E+01  (-0.3247621E+01)
 number of electron  353.0000000 magnetization 
 augmentation part   353.0000000 magnetization 

 Free energy of the ion-electron system (eV)
  ---------------------------------------------------
  alpha Z        PSCENC =      3871.48951558
  Ewald energy   TEWEN  =    -31326.37545034
  -1/2 Hartree   DENC   =     -4791.08628044
  -exchange  EXHF       =         0.00000000
  -V(xc)+E(xc)   XCENC  =     -8607.09628694
  PAW double counting   =         0.00000000        0.00000000
  entropy T*S    EENTRO =         0.01083233
  eigenvalues    EBANDS =      -292.76018704
  atomic energy  EATOM  =     41030.45412133
  ---------------------------------------------------
  free energy    TOTEN  =      -115.36373552 eV

  energy without entropy =     -115.37456785  energy(sigma->0) =     -115.36644360


--------------------------------------------------------------------------------------------------------




----------------------------------------- Iteration    1(   5)  ---------------------------------------


     EDDAV:  cpu time  437.84: real time  437.81
       DOS:  cpu time    0.01: real time    0.01
    CHARGE:  cpu time   17.52: real time   17.52
    MIXING:  cpu time    0.06: real time    0.06
    --------------------------------------------
      LOOP:  cpu time  455.43: real time  455.40

 eigenvalue-minimisations  :  4176
 total energy-change (2. order) :-0.9405513E-02  (-0.9398234E-02)
 number of electron  358.0000014 magnetization 
 augmentation part   207.1930002 magnetization 

 Broyden mixing:
  rms(total) = 0.15540E+01    rms(broyden)= 0.15286E+01
  rms(prec ) = 0.23066E+01
  weight for this iteration     100.00

 Free energy of the ion-electron system (eV)
  ---------------------------------------------------
  alpha Z        PSCENC =      3871.48951558
  Ewald energy   TEWEN  =    -31326.37545034
  -1/2 Hartree   DENC   =     -4791.08628044
  -exchange  EXHF       =         0.00000000
  -V(xc)+E(xc)   XCENC  =     -8607.09628694
  PAW double counting   =         0.00000000        0.00000000
  entropy T*S    EENTRO =         0.01082809
  eigenvalues    EBANDS =      -292.76958831
  atomic energy  EATOM  =     41030.45412133
  ---------------------------------------------------
  free energy    TOTEN  =      -115.37314103 eV

  energy without entropy =     -115.38396912  energy(sigma->0) =     -115.37584805


--------------------------------------------------------------------------------------------------------




----------------------------------------- Iteration    1(   6)  ---------------------------------------


    POTLOK:  cpu time    0.39: real time    0.39
    SETDIJ:  cpu time    1.21: real time    1.21
    EDDIAG:  cpu time   49.89: real time   49.89
  RMM-DIIS:  cpu time  241.00: real time  240.98
    ORTHCH:  cpu time   17.38: real time   17.38
       DOS:  cpu time    0.01: real time    0.01
    CHARGE:  cpu time   15.39: real time   15.39
    MIXING:  cpu time    0.05: real time    0.05
    --------------------------------------------
      LOOP:  cpu time  325.32: real time  325.31

 eigenvalue-minimisations  :  4000
 total energy-change (2. order) : 0.5296390E+01  (-0.7956875E+01)
 number of electron  358.0000004 magnetization 
 augmentation part   216.5419053 magnetization 

 Broyden mixing:
  rms(total) = 0.86186E+00    rms(broyden)= 0.85399E+00
  rms(prec ) = 0.12137E+01
  weight for this iteration     100.00

 eigenvalues of (default mixing * dielectric matrix)
  average eigenvalue GAMMA=   0.6428
  0.6428

 Free energy of the ion-electron system (eV)
  ---------------------------------------------------
  alpha Z        PSCENC =      3871.48951558
  Ewald energy   TEWEN  =    -31326.37545034
  -1/2 Hartree   DENC   =     -4326.34137328
  -exchange  EXHF       =         0.00000000
  -V(xc)+E(xc)   XCENC  =     -8603.23861835
  PAW double counting   =         0.00000000        0.00000000
  entropy T*S    EENTRO =        -0.00229032
  eigenvalues    EBANDS =      -756.06265517
  atomic energy  EATOM  =     41030.45412133
  ---------------------------------------------------
  free energy    TOTEN  =      -110.07675055 eV

  energy without entropy =     -110.07446023  energy(sigma->0) =     -110.07617797


--------------------------------------------------------------------------------------------------------




----------------------------------------- Iteration    1(   7)  ---------------------------------------


    POTLOK:  cpu time    0.45: real time    0.45
    SETDIJ:  cpu time    1.42: real time    1.42
    EDDIAG:  cpu time   59.24: real time   59.23
  RMM-DIIS:  cpu time  237.47: real time  237.46
    ORTHCH:  cpu time   17.74: real time   17.74
       DOS:  cpu time    0.01: real time    0.01
    CHARGE:  cpu time   14.88: real time   14.88
    MIXING:  cpu time    0.04: real time    0.04
    --------------------------------------------
      LOOP:  cpu time  331.26: real time  331.24

 eigenvalue-minimisations  :  4000
 total energy-change (2. order) : 0.2382970E+01  (-0.9474979E+00)
 number of electron  358.0000007 magnetization 
 augmentation part   213.3517097 magnetization 

 Broyden mixing:
  rms(total) = 0.50912E-01    rms(broyden)= 0.41435E-01
  rms(prec ) = 0.62990E-01
  weight for this iteration     100.00
  WARNING: grid for Broyden might be to small

 eigenvalues of (default mixing * dielectric matrix)
  average eigenvalue GAMMA=   0.9138
  0.6580  1.1696

 Free energy of the ion-electron system (eV)
  ---------------------------------------------------
  alpha Z        PSCENC =      3871.48951558
  Ewald energy   TEWEN  =    -31326.37545034
  -1/2 Hartree   DENC   =     -4473.52566081
  -exchange  EXHF       =         0.00000000
  -V(xc)+E(xc)   XCENC  =     -8600.15048763
  PAW double counting   =         0.00000000        0.00000000
  entropy T*S    EENTRO =        -0.00368888
  eigenvalues    EBANDS =      -609.58213008
  atomic energy  EATOM  =     41030.45412133
  ---------------------------------------------------
  free energy    TOTEN  =      -107.69378083 eV

  energy without entropy =     -107.69009196  energy(sigma->0) =     -107.69285861


--------------------------------------------------------------------------------------------------------




----------------------------------------- Iteration    1(   8)  ---------------------------------------


    POTLOK:  cpu time    0.34: real time    0.34
    SETDIJ:  cpu time    1.37: real time    1.37
    EDDIAG:  cpu time   46.73: real time   46.73
  RMM-DIIS:  cpu time  238.35: real time  238.34
    ORTHCH:  cpu time   18.14: real time   18.14
       DOS:  cpu time    0.01: real time    0.01
    CHARGE:  cpu time   14.79: real time   14.79
    MIXING:  cpu time    0.04: real time    0.04
    --------------------------------------------
      LOOP:  cpu time  319.79: real time  319.77

 eigenvalue-minimisations  :  4000
 total energy-change (2. order) :-0.2499219E-02  (-0.3074735E-02)
 number of electron  358.0000007 magnetization 
 augmentation part   213.3822520 magnetization 

 Broyden mixing:
  rms(total) = 0.20905E-01    rms(broyden)= 0.20042E-01
  rms(prec ) = 0.48909E-01
  weight for this iteration     100.00

 eigenvalues of (default mixing * dielectric matrix)
  average eigenvalue GAMMA=   0.8374
  1.2517  0.6646  0.5959

 Free energy of the ion-electron system (eV)
  ---------------------------------------------------
  alpha Z        PSCENC =      3871.48951558
  Ewald energy   TEWEN  =    -31326.37545034
  -1/2 Hartree   DENC   =     -4470.81051349
  -exchange  EXHF       =         0.00000000
  -V(xc)+E(xc)   XCENC  =     -8600.37483820
  PAW double counting   =         0.00000000        0.00000000
  entropy T*S    EENTRO =        -0.00454700
  eigenvalues    EBANDS =      -612.07456792
  atomic energy  EATOM  =     41030.45412133
  ---------------------------------------------------
  free energy    TOTEN  =      -107.69628005 eV

  energy without entropy =     -107.69173305  energy(sigma->0) =     -107.69514330


--------------------------------------------------------------------------------------------------------




----------------------------------------- Iteration    1(   9)  ---------------------------------------


    POTLOK:  cpu time    0.33: real time    0.33
    SETDIJ:  cpu time    1.38: real time    1.38
    EDDIAG:  cpu time   47.44: real time   47.44
  RMM-DIIS:  cpu time  240.21: real time  240.19
    ORTHCH:  cpu time   15.24: real time   15.24
       DOS:  cpu time    0.01: real time    0.01
    CHARGE:  cpu time   14.66: real time   14.65
    MIXING:  cpu time    0.04: real time    0.04
    --------------------------------------------
      LOOP:  cpu time  319.31: real time  319.30

 eigenvalue-minimisations  :  4000
 total energy-change (2. order) : 0.2698274E-02  (-0.9030807E-03)
 number of electron  358.0000007 magnetization 
 augmentation part   213.3852357 magnetization 

 Broyden mixing:
  rms(total) = 0.39871E-02    rms(broyden)= 0.35770E-02
  rms(prec ) = 0.62955E-02
  weight for this iteration     100.00
  WARNING: grid for Broyden might be to small

 eigenvalues of (default mixing * dielectric matrix)
  average eigenvalue GAMMA=   0.7935
  1.2697  0.6515  0.7810  0.4720

 Free energy of the ion-electron system (eV)
  ---------------------------------------------------
  alpha Z        PSCENC =      3871.48951558
  Ewald energy   TEWEN  =    -31326.37545034
  -1/2 Hartree   DENC   =     -4470.45787392
  -exchange  EXHF       =         0.00000000
  -V(xc)+E(xc)   XCENC  =     -8600.40711883
  PAW double counting   =         0.00000000        0.00000000
  entropy T*S    EENTRO =        -0.00399424
  eigenvalues    EBANDS =      -612.39278136
  atomic energy  EATOM  =     41030.45412133
  ---------------------------------------------------
  free energy    TOTEN  =      -107.69358178 eV

  energy without entropy =     -107.68958754  energy(sigma->0) =     -107.69258322


--------------------------------------------------------------------------------------------------------




----------------------------------------- Iteration    1(  10)  ---------------------------------------


    POTLOK:  cpu time    0.44: real time    0.43
    SETDIJ:  cpu time    1.30: real time    1.30
    EDDIAG:  cpu time   50.94: real time   50.94
  RMM-DIIS:  cpu time  250.56: real time  250.55
    ORTHCH:  cpu time   17.61: real time   17.61
       DOS:  cpu time    0.01: real time    0.01
    CHARGE:  cpu time   15.30: real time   15.30
    MIXING:  cpu time    0.06: real time    0.06
    --------------------------------------------
      LOOP:  cpu time  336.23: real time  336.21

 eigenvalue-minimisations  :  3989

--------------------------------
---###--- REMOVED TEXT ---###---
--------------------------------

     66      -2.2326      2.00000
     67      -2.2272      2.00000
     68      -2.2006      2.00000
     69      -2.2006      2.00000
     70      -2.1756      2.00000
     71      -2.1756      2.00000
     72      -2.1064      2.00000
     73      -2.1064      2.00000
     74      -2.0201      2.00000
     75      -2.0201      2.00000
     76      -2.0146      2.00000
     77      -2.0058      2.00000
     78      -1.9837      2.00000
     79      -1.9783      2.00000
     80      -1.9662      2.00000
     81      -1.9662      2.00000
     82      -1.9620      2.00000
     83      -1.9620      2.00000
     84      -1.9575      2.00000
     85      -1.9575      2.00000
     86      -1.9467      2.00000
     87      -1.9467      2.00000
     88      -1.9401      2.00000
     89      -1.9345      2.00000
     90      -1.9345      2.00000
     91      -1.9144      2.00000
     92      -1.8577      2.00000
     93      -1.8525      2.00000
     94      -1.8525      2.00000
     95      -1.7930      2.00000
     96      -1.7930      2.00000
     97      -1.7820      2.00000
     98      -1.5740      2.00000
     99      -1.5740      2.00000
    100      -1.5585      2.00000
    101      -1.5338      2.00000
    102      -1.5038      2.00000
    103      -1.5038      2.00000
    104      -1.4577      2.00000
    105      -1.4391      2.00000
    106      -1.4391      2.00000
    107      -1.4285      2.00000
    108      -1.4226      2.00000
    109      -1.4226      2.00000
    110      -1.2663      2.00000
    111      -1.2663      2.00000
    112      -1.2593      2.00000
    113      -1.2435      2.00000
    114      -1.2214      2.00000
    115      -1.2201      2.00000
    116      -1.2201      2.00000
    117      -1.1983      2.00000
    118      -1.1983      2.00000
    119      -1.1948      2.00000
    120      -1.1948      2.00000
    121      -1.1648      2.00000
    122      -1.1569      2.00000
    123      -1.1569      2.00000
    124      -1.1111      2.00000
    125      -1.0701      2.00000
    126      -1.0673      2.00000
    127      -1.0673      2.00000
    128      -1.0583      2.00000
    129      -1.0583      2.00000
    130      -0.8833      2.00000
    131      -0.8833      2.00000
    132      -0.8806      2.00000
    133      -0.7848      2.00000
    134      -0.7848      2.00000
    135      -0.7519      2.00000
    136      -0.6782      2.00000
    137      -0.6743      2.00000
    138      -0.6743      2.00000
    139      -0.6655      2.00000
    140      -0.6655      2.00000
    141      -0.6587      2.00000
    142      -0.6536      2.00000
    143      -0.6536      2.00000
    144      -0.6329      2.00000
    145      -0.6329      2.00000
    146      -0.6224      2.00000
    147      -0.6060      2.00000
    148      -0.5624      2.00000
    149      -0.5624      2.00000
    150      -0.4643      2.00000
    151      -0.4643      2.00000
    152      -0.4492      2.00000
    153      -0.3466      2.00000
    154      -0.3410      2.00000
    155      -0.3410      2.00000
    156      -0.3311      2.00000
    157      -0.3311      2.00000
    158      -0.3304      2.00000
    159      -0.3069      2.00000
    160      -0.2949      2.00000
    161      -0.2949      2.00000
    162      -0.2276      2.00000
    163      -0.2256      2.00000
    164      -0.2256      2.00000
    165      -0.1688      2.00000
    166       0.0273      2.00000
    167       0.0273      2.00000
    168       0.0520      2.00000
    169       0.5160      2.00000
    170       0.5960      2.00000
    171       0.5960      2.00000
    172       1.7701      2.00000
    173       2.2224      2.00000
    174       2.2224      2.00000
    175       2.2443      2.00000
    176       2.2552      2.00000
    177       2.2552      2.00000
    178       2.6258      2.00000
    179       2.8026      1.99996
    180       2.8026      1.99996
    181       3.7981      0.00000
    182       3.8652      0.00000
    183       3.8652      0.00000
    184       4.4251      0.00000
    185       4.6826      0.00000
    186       4.6826      0.00000
    187       5.4927      0.00000
    188       5.8152      0.00000
    189       5.8152      0.00000
    190       5.8491      0.00000
    191       5.8491      0.00000
    192       5.8570      0.00000
    193       6.6229      0.00000
    194       6.6776      0.00000
    195       6.6776      0.00000
    196       7.2520      0.00000
    197       7.5120      0.00000
    198       7.5120      0.00000
    199       7.9077      0.00000
    200       8.2130      0.00000

 k-point   8 :       0.4167    0.2500    0.2500
  band No.  band energies     occupation 
      1      -5.8232      2.00000
      2      -4.4934      2.00000
      3      -4.1467      2.00000
      4      -3.7478      2.00000
      5      -3.7249      2.00000
      6      -3.6707      2.00000
      7      -3.6260      2.00000
      8      -3.5985      2.00000
      9      -3.5901      2.00000
     10      -3.5841      2.00000
     11      -3.5765      2.00000
     12      -3.5041      2.00000
     13      -3.5020      2.00000
     14      -3.5014      2.00000
     15      -3.4630      2.00000
     16      -3.4552      2.00000
     17      -3.4277      2.00000
     18      -3.4183      2.00000
     19      -3.3753      2.00000
     20      -3.3651      2.00000
     21      -3.3479      2.00000
     22      -3.3387      2.00000
     23      -3.3374      2.00000
     24      -3.3227      2.00000
     25      -3.2968      2.00000
     26      -3.2865      2.00000
     27      -3.2514      2.00000
     28      -3.2454      2.00000
     29      -3.2313      2.00000
     30      -3.2282      2.00000
     31      -3.2125      2.00000
     32      -3.2086      2.00000
     33      -3.1713      2.00000
     34      -3.1669      2.00000
     35      -3.1497      2.00000
     36      -3.1318      2.00000
     37      -3.1141      2.00000
     38      -3.1081      2.00000
     39      -2.9875      2.00000
     40      -2.9098      2.00000
     41      -2.8717      2.00000
     42      -2.8522      2.00000
     43      -2.8167      2.00000
     44      -2.7914      2.00000
     45      -2.7701      2.00000
     46      -2.7194      2.00000
     47      -2.6887      2.00000
     48      -2.6794      2.00000
     49      -2.6600      2.00000
     50      -2.6513      2.00000
     51      -2.5922      2.00000
     52      -2.5398      2.00000
     53      -2.5195      2.00000
     54      -2.5175      2.00000
     55      -2.5023      2.00000
     56      -2.4925      2.00000
     57      -2.4819      2.00000
     58      -2.4463      2.00000
     59      -2.4345      2.00000
     60      -2.3874      2.00000
     61      -2.3520      2.00000
     62      -2.3392      2.00000
     63      -2.1841      2.00000
     64      -2.1830      2.00000
     65      -2.1725      2.00000
     66      -2.1422      2.00000
     67      -2.1288      2.00000
     68      -2.1285      2.00000
     69      -2.1065      2.00000
     70      -2.0791      2.00000
     71      -2.0732      2.00000
     72      -2.0577      2.00000
     73      -2.0457      2.00000
     74      -2.0434      2.00000
     75      -2.0353      2.00000
     76      -2.0024      2.00000
     77      -1.9888      2.00000
     78      -1.9869      2.00000
     79      -1.9695      2.00000
     80      -1.9689      2.00000
     81      -1.9605      2.00000
     82      -1.9473      2.00000
     83      -1.9396      2.00000
     84      -1.9313      2.00000
     85      -1.9218      2.00000
     86      -1.9175      2.00000
     87      -1.8936      2.00000
     88      -1.8770      2.00000
     89      -1.8707      2.00000
     90      -1.8685      2.00000
     91      -1.8534      2.00000
     92      -1.8464      2.00000
     93      -1.8315      2.00000
     94      -1.8238      2.00000
     95      -1.8119      2.00000
     96      -1.7151      2.00000
     97      -1.6836      2.00000
     98      -1.6535      2.00000
     99      -1.6322      2.00000
    100      -1.5781      2.00000
    101      -1.5679      2.00000
    102      -1.5663      2.00000
    103      -1.5093      2.00000
    104      -1.4984      2.00000
    105      -1.4599      2.00000
    106      -1.4056      2.00000
    107      -1.4023      2.00000
    108      -1.3687      2.00000
    109      -1.3522      2.00000
    110      -1.3362      2.00000
    111      -1.3055      2.00000
    112      -1.2914      2.00000
    113      -1.2853      2.00000
    114      -1.2779      2.00000
    115      -1.2629      2.00000
    116      -1.2362      2.00000
    117      -1.2287      2.00000
    118      -1.2209      2.00000
    119      -1.2146      2.00000
    120      -1.1937      2.00000
    121      -1.1524      2.00000
    122      -1.1521      2.00000
    123      -1.1398      2.00000
    124      -1.1309      2.00000
    125      -1.1270      2.00000
    126      -1.1131      2.00000
    127      -1.1128      2.00000
    128      -1.0246      2.00000
    129      -1.0084      2.00000
    130      -1.0010      2.00000
    131      -0.9913      2.00000
    132      -0.9646      2.00000
    133      -0.9197      2.00000
    134      -0.9043      2.00000
    135      -0.8132      2.00000
    136      -0.7846      2.00000
    137      -0.7740      2.00000
    138      -0.7625      2.00000
    139      -0.7293      2.00000
    140      -0.7233      2.00000
    141      -0.5738      2.00000
    142      -0.5495      2.00000
    143      -0.5264      2.00000
    144      -0.5201      2.00000
    145      -0.5083      2.00000
    146      -0.5036      2.00000
    147      -0.4929      2.00000
    148      -0.4855      2.00000
    149      -0.4600      2.00000
    150      -0.4593      2.00000
    151      -0.4510      2.00000
    152      -0.4213      2.00000
    153      -0.4186      2.00000
    154      -0.4039      2.00000
    155      -0.4034      2.00000
    156      -0.3891      2.00000
    157      -0.3890      2.00000
    158      -0.3781      2.00000
    159      -0.3553      2.00000
    160      -0.3538      2.00000
    161      -0.3512      2.00000
    162      -0.3121      2.00000
    163      -0.2819      2.00000
    164      -0.2731      2.00000
    165      -0.2514      2.00000
    166      -0.2466      2.00000
    167      -0.2262      2.00000
    168      -0.0636      2.00000
    169       0.9295      2.00000
    170       1.0400      2.00000
    171       1.4483      2.00000
    172       1.5952      2.00000
    173       1.6010      2.00000
    174       2.1239      2.00000
    175       2.3668      2.00000
    176       2.5098      2.00000
    177       2.5723      2.00000
    178       2.7067      2.00000
    179       3.1812      0.46458
    180       3.3370      0.00676
    181       3.7234      0.00000
    182       4.2272      0.00000
    183       4.4071      0.00000
    184       4.4296      0.00000
    185       4.5501      0.00000
    186       4.5559      0.00000
    187       5.0241      0.00000
    188       5.0833      0.00000
    189       5.4634      0.00000
    190       5.6724      0.00000
    191       6.0045      0.00000
    192       6.1262      0.00000
    193       6.3052      0.00000
    194       6.4974      0.00000
    195       6.8671      0.00000
    196       6.9480      0.00000
    197       7.0052      0.00000
    198       7.1518      0.00000
    199       7.4073      0.00000
    200       7.5130      0.00000

 k-point   9 :       0.4167    0.4167    0.2500
  band No.  band energies     occupation 
      1      -5.7949      2.00000
      2      -4.3025      2.00000
      3      -4.0648      2.00000
      4      -3.9534      2.00000
      5      -3.8001      2.00000
      6      -3.7362      2.00000
      7      -3.6862      2.00000
      8      -3.6809      2.00000
      9      -3.6228      2.00000
     10      -3.5154      2.00000
     11      -3.4994      2.00000
     12      -3.4787      2.00000
     13      -3.4576      2.00000
     14      -3.4295      2.00000
     15      -3.4072      2.00000
     16      -3.3976      2.00000
     17      -3.3912      2.00000
     18      -3.3862      2.00000
     19      -3.3818      2.00000
     20      -3.3685      2.00000
     21      -3.3606      2.00000
     22      -3.3572      2.00000
     23      -3.3487      2.00000
     24      -3.3363      2.00000
     25      -3.3111      2.00000
     26      -3.2852      2.00000
     27      -3.2806      2.00000
     28      -3.2735      2.00000
     29      -3.2698      2.00000
     30      -3.2528      2.00000
     31      -3.2527      2.00000
     32      -3.2398      2.00000
     33      -3.2124      2.00000
     34      -3.2106      2.00000
     35      -3.1824      2.00000
     36      -3.1249      2.00000
     37      -3.0962      2.00000
     38      -3.0579      2.00000
     39      -3.0388      2.00000
     40      -2.9879      2.00000
     41      -2.9635      2.00000
     42      -2.9102      2.00000
     43      -2.8720      2.00000
     44      -2.8264      2.00000
     45      -2.7822      2.00000
     46      -2.7338      2.00000
     47      -2.7152      2.00000
     48      -2.6681      2.00000
     49      -2.6621      2.00000
     50      -2.6348      2.00000
     51      -2.6250      2.00000
     52      -2.5762      2.00000
     53      -2.5493      2.00000
     54      -2.5430      2.00000
     55      -2.5212      2.00000
     56      -2.4524      2.00000
     57      -2.4367      2.00000
     58      -2.4205      2.00000
     59      -2.3831      2.00000
     60      -2.3449      2.00000
     61      -2.2446      2.00000
     62      -2.1519      2.00000
     63      -2.1225      2.00000
     64      -2.1133      2.00000
     65      -2.0705      2.00000
     66      -2.0689      2.00000
     67      -2.0270      2.00000
     68      -2.0225      2.00000
     69      -2.0205      2.00000
     70      -2.0184      2.00000
     71      -2.0046      2.00000
     72      -1.9962      2.00000
     73      -1.9908      2.00000
     74      -1.9707      2.00000
     75      -1.9669      2.00000
     76      -1.9578      2.00000
     77      -1.9556      2.00000
     78      -1.9542      2.00000
     79      -1.9490      2.00000
     80      -1.9425      2.00000
     81      -1.9398      2.00000
     82      -1.9368      2.00000
     83      -1.9088      2.00000
     84      -1.9082      2.00000
     85      -1.9034      2.00000
     86      -1.8973      2.00000
     87      -1.8684      2.00000
     88      -1.8399      2.00000
     89      -1.8230      2.00000
     90      -1.8203      2.00000
     91      -1.7964      2.00000
     92      -1.7857      2.00000
     93      -1.7595      2.00000
     94      -1.7564      2.00000
     95      -1.7477      2.00000
     96      -1.7417      2.00000
     97      -1.7335      2.00000
     98      -1.6695      2.00000
     99      -1.6544      2.00000
    100      -1.6375      2.00000
    101      -1.6331      2.00000
    102      -1.6098      2.00000
    103      -1.6036      2.00000
    104      -1.5976      2.00000
    105      -1.5885      2.00000
    106      -1.5413      2.00000
    107      -1.5368      2.00000
    108      -1.5008      2.00000
    109      -1.4900      2.00000
    110      -1.4808      2.00000
    111      -1.3918      2.00000
    112      -1.3817      2.00000
    113      -1.3569      2.00000
    114      -1.3418      2.00000
    115      -1.3239      2.00000
    116      -1.3166      2.00000
    117      -1.3122      2.00000
    118      -1.2875      2.00000
    119      -1.2807      2.00000
    120      -1.2475      2.00000
    121      -1.2405      2.00000
    122      -1.1904      2.00000
    123      -1.1711      2.00000
    124      -1.1104      2.00000
    125      -1.1014      2.00000
    126      -1.0816      2.00000
    127      -1.0723      2.00000
    128      -1.0663      2.00000
    129      -1.0220      2.00000
    130      -1.0131      2.00000
    131      -0.9792      2.00000
    132      -0.9702      2.00000
    133      -0.9412      2.00000
    134      -0.9355      2.00000
    135      -0.9220      2.00000
    136      -0.8965      2.00000
    137      -0.8911      2.00000
    138      -0.8788      2.00000
    139      -0.7972      2.00000
    140      -0.7246      2.00000
    141      -0.7102      2.00000
    142      -0.6495      2.00000
    143      -0.5159      2.00000
    144      -0.5083      2.00000
    145      -0.4477      2.00000
    146      -0.4411      2.00000
    147      -0.4344      2.00000
    148      -0.4289      2.00000
    149      -0.4219      2.00000
    150      -0.4107      2.00000
    151      -0.4060      2.00000
    152      -0.3962      2.00000
    153      -0.3843      2.00000
    154      -0.3788      2.00000
    155      -0.3762      2.00000
    156      -0.3626      2.00000
    157      -0.3612      2.00000
    158      -0.3595      2.00000
    159      -0.3550      2.00000
    160      -0.3531      2.00000
    161      -0.3498      2.00000
    162      -0.3444      2.00000
    163      -0.3400      2.00000
    164      -0.3326      2.00000
    165      -0.3177      2.00000
    166      -0.2892      2.00000
    167      -0.2846      2.00000
    168      -0.2837      2.00000
    169       1.2293      2.00000
    170       1.6053      2.00000
    171       1.8130      2.00000
    172       1.9705      2.00000
    173       2.0747      2.00000
    174       2.1192      2.00000
    175       2.5528      2.00000
    176       2.6539      2.00000
    177       3.0600      2.10311
    178       3.2217     -0.02656
    179       3.3439      0.00869
    180       3.5204      0.00002
    181       3.6654      0.00000
    182       3.7577      0.00000
    183       3.7936      0.00000
    184       3.8605      0.00000
    185       4.5381      0.00000
    186       4.7918      0.00000
    187       4.8644      0.00000
    188       4.9055      0.00000
    189       4.9489      0.00000
    190       5.4127      0.00000
    191       5.5047      0.00000
    192       5.9012      0.00000
    193       6.4569      0.00000
    194       6.6196      0.00000
    195       6.8453      0.00000
    196       6.9297      0.00000
    197       6.9938      0.00000
    198       7.3298      0.00000
    199       7.4473      0.00000
    200       7.7906      0.00000

 k-point  10 :       0.4167    0.4167    0.4167
  band No.  band energies     occupation 
      1      -5.7725      2.00000
      2      -4.1473      2.00000
      3      -3.9620      2.00000
      4      -3.9620      2.00000
      5      -3.8859      2.00000
      6      -3.8252      2.00000
      7      -3.8252      2.00000
      8      -3.7862      2.00000
      9      -3.6401      2.00000
     10      -3.4628      2.00000
     11      -3.4628      2.00000
     12      -3.4591      2.00000
     13      -3.4132      2.00000
     14      -3.4132      2.00000
     15      -3.4093      2.00000
     16      -3.4029      2.00000
     17      -3.4029      2.00000
     18      -3.3884      2.00000
     19      -3.3773      2.00000
     20      -3.3773      2.00000
     21      -3.3646      2.00000
     22      -3.3631      2.00000
     23      -3.3631      2.00000
     24      -3.3490      2.00000
     25      -3.3412      2.00000
     26      -3.3412      2.00000
     27      -3.3321      2.00000
     28      -3.3280      2.00000
     29      -3.3280      2.00000
     30      -3.3249      2.00000
     31      -3.3249      2.00000
     32      -3.3211      2.00000
     33      -3.1793      2.00000
     34      -3.0578      2.00000
     35      -3.0578      2.00000
     36      -3.0133      2.00000
     37      -2.9142      2.00000
     38      -2.9142      2.00000
     39      -2.8839      2.00000
     40      -2.8723      2.00000
     41      -2.8723      2.00000
     42      -2.8612      2.00000
     43      -2.8589      2.00000
     44      -2.8589      2.00000
     45      -2.7990      2.00000
     46      -2.7328      2.00000
     47      -2.7328      2.00000
     48      -2.7114      2.00000
     49      -2.7060      2.00000
     50      -2.7051      2.00000
     51      -2.7051      2.00000
     52      -2.7030      2.00000
     53      -2.7030      2.00000
     54      -2.6119      2.00000
     55      -2.5897      2.00000
     56      -2.5897      2.00000
     57      -2.2986      2.00000
     58      -2.2436      2.00000
     59      -2.2436      2.00000
     60      -2.2216      2.00000
     61      -2.1055      2.00000
     62      -2.1015      2.00000
     63      -2.1015      2.00000
     64      -2.0672      2.00000
     65      -2.0672      2.00000
     66      -2.0506      2.00000
     67      -2.0506      2.00000
     68      -2.0382      2.00000
     69      -2.0192      2.00000
     70      -2.0189      2.00000
     71      -2.0189      2.00000
     72      -1.9962      2.00000
     73      -1.9962      2.00000
     74      -1.9678      2.00000
     75      -1.9661      2.00000
     76      -1.9661      2.00000
     77      -1.9421      2.00000
     78      -1.9180      2.00000
     79      -1.9180      2.00000
     80      -1.9159      2.00000
     81      -1.8921      2.00000
     82      -1.8921      2.00000
     83      -1.8687      2.00000
     84      -1.8687      2.00000
     85      -1.8607      2.00000
     86      -1.8230      2.00000
     87      -1.8230      2.00000
     88      -1.8019      2.00000
     89      -1.7912      2.00000
     90      -1.7912      2.00000
     91      -1.7873      2.00000
     92      -1.7825      2.00000
     93      -1.7575      2.00000
     94      -1.7544      2.00000
     95      -1.7544      2.00000
     96      -1.7458      2.00000
     97      -1.7458      2.00000
     98      -1.7008      2.00000
     99      -1.7008      2.00000
    100      -1.6907      2.00000
    101      -1.6272      2.00000
    102      -1.6180      2.00000
    103      -1.6180      2.00000
    104      -1.5572      2.00000
    105      -1.5107      2.00000
    106      -1.5107      2.00000
    107      -1.4839      2.00000
    108      -1.4756      2.00000
    109      -1.4441      2.00000
    110      -1.4441      2.00000
    111      -1.4372      2.00000
    112      -1.4184      2.00000
    113      -1.4184      2.00000
    114      -1.4083      2.00000
    115      -1.4083      2.00000
    116      -1.3988      2.00000
    117      -1.3168      2.00000
    118      -1.3168      2.00000
    119      -1.3058      2.00000
    120      -1.2698      2.00000
    121      -1.2440      2.00000
    122      -1.2440      2.00000
    123      -1.2375      2.00000
    124      -1.2365      2.00000
    125      -1.2365      2.00000
    126      -1.1810      2.00000
    127      -1.1810      2.00000
    128      -1.1273      2.00000
    129      -1.1261      2.00000
    130      -1.1261      2.00000
    131      -1.1219      2.00000
    132      -1.1038      2.00000
    133      -1.1038      2.00000
    134      -1.1035      2.00000
    135      -1.0845      2.00000
    136      -1.0845      2.00000
    137      -0.9783      2.00000
    138      -0.9783      2.00000
    139      -0.9702      2.00000
    140      -0.9083      2.00000
    141      -0.9083      2.00000
    142      -0.8128      2.00000
    143      -0.8094      2.00000
    144      -0.8094      2.00000
    145      -0.3664      2.00000
    146      -0.3664      2.00000
    147      -0.3621      2.00000
    148      -0.3517      2.00000
    149      -0.3517      2.00000
    150      -0.3432      2.00000
    151      -0.3432      2.00000
    152      -0.3368      2.00000
    153      -0.3344      2.00000
    154      -0.3251      2.00000
    155      -0.3251      2.00000
    156      -0.3194      2.00000
    157      -0.3172      2.00000
    158      -0.3172      2.00000
    159      -0.3164      2.00000
    160      -0.3031      2.00000
    161      -0.2990      2.00000
    162      -0.2990      2.00000
    163      -0.2876      2.00000
    164      -0.2876      2.00000
    165      -0.2812      2.00000
    166      -0.2673      2.00000
    167      -0.2673      2.00000
    168      -0.2660      2.00000
    169       1.9083      2.00000
    170       2.4430      2.00000
    171       2.4430      2.00000
    172       2.6271      2.00000
    173       2.9273      1.99257
    174       2.9273      1.99257
    175       2.9492      1.99019
    176       2.9527      1.99013
    177       2.9527      1.99013
    178       3.2217     -0.02629
    179       3.3263      0.00127
    180       3.3263      0.00127
    181       3.5093      0.00003
    182       3.6469      0.00000
    183       3.6469      0.00000
    184       3.9609      0.00000
    185       4.1809      0.00000
    186       4.1809      0.00000
    187       4.2022      0.00000
    188       4.2022      0.00000
    189       4.2067      0.00000
    190       4.5355      0.00000
    191       4.6188      0.00000
    192       4.6188      0.00000
    193       6.9248      0.00000
    194       7.3592      0.00000
    195       7.3592      0.00000
    196       7.6088      0.00000
    197       7.8123      0.00000
    198       7.8123      0.00000
    199       8.0547      0.00000
    200       8.2643      0.00000


--------------------------------------------------------------------------------------------------------


 soft charge-density along one line, spin component                        1
         0         1         2         3         4         5         6         7         8         9
x   144.6192    0.0000    0.0000   -0.2160   -0.6754    0.0000    0.0000    0.8770    2.5311    0.0000
x     0.0000   -0.3730   -0.1256    0.0000    0.0000   -0.0605   -1.9925    0.0000    0.0000   -0.0421
x    -0.0231    0.0000    0.0000    0.0387    0.4264    0.0000    0.0000    0.0086   -0.0023    0.0000
x     0.0000    0.0021    0.0007    0.0000    0.0000   -0.0003   -0.0001    0.0000    0.0000    0.0000
x     0.0000    0.0000    0.0000    0.0000    0.0000    0.0000    0.0000    0.0000    0.0000    0.0000
y   144.6192    0.0000    0.3498    0.0000    0.6531    0.0000    0.8700    0.0000    2.4093    0.0000
y     0.3817    0.0000    0.1211    0.0000   -0.0644    0.0000   -2.0436    0.0000    0.0448    0.0000
y     0.0226    0.0000    0.0386    0.0000    0.4233    0.0000   -0.0084    0.0000    0.0023    0.0000
y     0.0021    0.0000    0.0012    0.0000    0.0003    0.0000    0.0001    0.0000    0.0000    0.0000
y     0.0000    0.0000    0.0000    0.0000    0.0000    0.0000    0.0000    0.0000    0.0000    0.0000
z   144.6192    0.0000    0.4652    0.0000    0.7728    0.0000    0.8723    0.0000    2.2729    0.0000
z     0.3809    0.0000    0.1185    0.0000   -0.0657    0.0000   -2.0427    0.0000    0.0446    0.0000
z     0.0235    0.0000    0.0383    0.0000    0.4261    0.0000   -0.0086    0.0000    0.0023    0.0000
z     0.0021    0.0000    0.0020    0.0000    0.0003    0.0000    0.0001    0.0000    0.0000    0.0000
z     0.0000    0.0000    0.0000    0.0000    0.0000    0.0000    0.0000    0.0000    0.0000    0.0000
 total charge-density along one line
x   358.0000    0.0000    0.0000    0.4613   -0.7455    0.0000    0.0000    2.6364   98.3921    0.0000
x     0.0000    0.7488   -0.1527    0.0000    0.0000   -0.1453  -17.4121    0.0000    0.0000   -0.7812
x     0.0418    0.0000    0.0000   -0.5854   -7.8652    0.0000    0.0000   -0.2005   -0.0065    0.0000
x     0.0000    0.0683    1.7218    0.0000    0.0000    0.1172   -0.0229    0.0000    0.0000    0.0811
x     0.6444    0.0000    0.0000    0.0300   -0.0051    0.0000    0.0000    0.0093    0.0356    0.0000
x     0.0000    0.0005   -0.0004    0.0000    0.0000    0.0000   -0.0014    0.0000    0.0000   -0.0001
x    -0.0001    0.0000    0.0000    0.0001    0.0001    0.0000    0.0000   -0.0001    0.0000    0.0000
x     0.0000    0.0000    0.0001    0.0000    0.0000    0.0000    0.0000    0.0000    0.0000    0.0000
x    -0.0001    0.0000    0.0000    0.0000    0.0000    0.0000    0.0000    0.0000    0.0000    0.0000
x     0.0000    0.0000    0.0000    0.0000    0.0000    0.0000    0.0000    0.0000
y   358.0000    0.0000   -0.4613    0.0000    0.7455    0.0000    2.6364    0.0000   98.3921    0.0000
y    -0.7488    0.0000    0.1527    0.0000   -0.1453    0.0000  -17.4121    0.0000    0.7812    0.0000
y    -0.0418    0.0000   -0.5854    0.0000   -7.8652    0.0000    0.2005    0.0000    0.0065    0.0000
y     0.0683    0.0000    1.7218    0.0000   -0.1172    0.0000    0.0229    0.0000    0.0811    0.0000
y     0.6444    0.0000   -0.0300    0.0000    0.0051    0.0000    0.0093    0.0000    0.0356    0.0000
y    -0.0005    0.0000    0.0004    0.0000    0.0000    0.0000   -0.0014    0.0000    0.0001    0.0000
y     0.0001    0.0000    0.0001    0.0000    0.0001    0.0000    0.0001    0.0000    0.0000    0.0000
y     0.0000    0.0000    0.0001    0.0000    0.0000    0.0000    0.0000    0.0000    0.0000    0.0000
y    -0.0001    0.0000    0.0000    0.0000    0.0000    0.0000    0.0000    0.0000    0.0000    0.0000
y     0.0000    0.0000    0.0000    0.0000    0.0000    0.0000    0.0000    0.0000
z   358.0000    0.0000   -0.4613    0.0000    0.7455    0.0000    2.6364    0.0000   98.3921    0.0000
z    -0.7488    0.0000    0.1527    0.0000   -0.1453    0.0000  -17.4121    0.0000    0.7812    0.0000
z    -0.0418    0.0000   -0.5854    0.0000   -7.8652    0.0000    0.2005    0.0000    0.0065    0.0000
z     0.0683    0.0000    1.7218    0.0000   -0.1172    0.0000    0.0229    0.0000    0.0811    0.0000
z     0.6444    0.0000   -0.0300    0.0000    0.0051    0.0000    0.0093    0.0000    0.0356    0.0000
z    -0.0005    0.0000    0.0004    0.0000    0.0000    0.0000   -0.0014    0.0000    0.0001    0.0000
z     0.0001    0.0000    0.0001    0.0000    0.0001    0.0000    0.0001    0.0000    0.0000    0.0000
z     0.0000    0.0000    0.0001    0.0000    0.0000    0.0000    0.0000    0.0000    0.0000    0.0000
z    -0.0001    0.0000    0.0000    0.0000    0.0000    0.0000    0.0000    0.0000    0.0000    0.0000
z     0.0000    0.0000    0.0000    0.0000    0.0000    0.0000    0.0000    0.0000

 pseudopotential strength for first ion, spin component: 
                        1
-24.184  87.973   0.000   0.000   0.000
 87.973 133.219   0.000   0.000   0.000
  0.000   0.000 -15.155   0.000   0.000
  0.000   0.000   0.000 -15.155   0.000
  0.000   0.000   0.000   0.000 -15.155
 total augmentation occupancy for first ion, spin component: 
                        1
  0.088  -0.001   0.000   0.000   0.000
 -0.001   0.000   0.000   0.000   0.000
  0.000   0.000   0.000   0.000   0.000
  0.000   0.000   0.000   0.000   0.000
  0.000   0.000   0.000   0.000   0.000


------------------------ aborting loop because EDIFF is reached ----------------------------------------




--------------------------------------------------------------------------------------------------------



  FREE ENERGIE OF THE ION-ELECTRON SYSTEM (eV)
  ---------------------------------------------------
  free  energy   TOTEN  =      -107.750539 eV

  energy  without entropy=     -107.747414  energy(sigma->0) =     -107.749758

    CHARGE:  cpu time   14.03: real time   14.03
    FORLOC:  cpu time    0.30: real time    0.30
    FORNL :  cpu time  115.74: real time  115.74
    STRESS:  cpu time  300.95: real time  300.94
    FORCOR:  cpu time    0.50: real time    0.50
    FORHAR:  cpu time    0.50: real time    0.49
    MIXING:  cpu time    0.04: real time    0.04

  FORCE on cell =-STRESS in cart. coord.  units (eV):
  Direction    XX          YY          ZZ          XY          YZ          ZX
  --------------------------------------------------------------------------------------
  Alpha Z  3871.48952  3871.48952  3871.48952
  Ewald  -10443.44439-10443.44439-10443.44439     0.00000     0.00000     0.00000
  Hartree  1489.31202  1489.31202  1489.31202     0.00000     0.00000     0.00000
  E(xc)   -2815.94308 -2815.94308 -2815.94308     0.00000     0.00000     0.00000
  Local    3837.67131  3837.67131  3837.67131     0.00000     0.00000     0.00000
  n-local  -616.73376  -609.62921  -607.89516    -3.68794    -3.55566    -1.09556
  augment  2324.10126  2329.85565  2332.36220    -1.47658    -1.17881    -0.60324
  Kinetic  2369.19560  2371.81126  2368.89634    -6.52005    -7.45464    -3.56849
  Fock        0.00000     0.00000     0.00000     0.00000     0.00000     0.00000
  -------------------------------------------------------------------------------------
  Total      26.40677    26.40677    26.40677     0.00000     0.00000     0.00000
  in kB      77.52482    77.52482    77.52482     0.00000     0.00000     0.00000
  external pressure =       77.52 kB  Pullay stress =        0.00 kB


 VOLUME and BASIS-vectors are now :
 -----------------------------------------------------------------------------
  energy-cutoff  :      270.00
  volume of cell :      545.74
      direct lattice vectors                 reciprocal lattice vectors
     8.172000000  0.000000000  0.000000000     0.122369065  0.000000000  0.000000000
     0.000000000  8.172000000  0.000000000     0.000000000  0.122369065  0.000000000
     0.000000000  0.000000000  8.172000000     0.000000000  0.000000000  0.122369065

  length of vectors
     8.172000000  8.172000000  8.172000000     0.122369065  0.122369065  0.122369065


 FORCES acting on ions
    electron-ion (+dipol)            ewald-force                    non-local-force                 convergence-correction
 -----------------------------------------------------------------------------------------------
   -.389E-13 -.116E-29 0.100E-27   -.134E-13 0.433E-14 -.111E-15   0.000E+00 0.103E-24 -.517E-25   -.551E-14 -.385E-14 -.496E-14
   -.955E+01 0.185E-13 0.371E-13   0.681E+01 0.346E-13 -.693E-13   0.275E+01 -.217E-18 -.867E-18   -.535E-02 -.518E-13 -.697E-13
   0.416E-06 0.955E+01 -.107E-12   -.488E-13 -.681E+01 0.666E-13   0.173E-17 -.275E+01 0.542E-18   -.115E-12 0.535E-02 -.135E-12
   0.416E-06 -.128E-12 0.955E+01   -.737E-13 0.639E-13 -.681E+01   -.217E-17 0.108E-18 -.275E+01   -.105E-12 -.131E-12 0.535E-02
   -.506E+01 0.506E+01 0.506E+01   0.509E+01 -.509E+01 -.509E+01   -.248E-01 0.248E-01 0.248E-01   -.590E-02 0.590E-02 0.590E-02
   0.955E+01 0.241E-13 0.289E-13   -.681E+01 0.648E-13 -.497E-13   -.275E+01 0.108E-17 -.173E-17   0.535E-02 -.573E-13 -.640E-13
   0.557E-06 0.538E+00 -.799E-13   0.515E-13 -.456E+00 0.249E-13   -.386E-18 -.852E-01 0.163E-18   0.128E-12 0.627E-02 -.136E-12
   0.557E-06 -.997E-13 0.538E+00   0.693E-13 0.000E+00 -.456E+00   0.928E-18 0.000E+00 -.852E-01   0.101E-12 -.132E-12 0.627E-02
   0.506E+01 0.506E+01 0.506E+01   -.509E+01 -.509E+01 -.509E+01   0.248E-01 0.248E-01 0.248E-01   0.590E-02 0.590E-02 0.590E-02
   -.538E+00 0.144E-12 -.402E-13   0.456E+00 0.515E-13 0.888E-13   0.852E-01 0.651E-18 0.840E-18   -.627E-02 -.124E-13 -.221E-13
   -.416E-06 -.955E+01 0.236E-14   -.631E-13 0.681E+01 0.497E-13   -.867E-18 0.275E+01 -.759E-18   -.120E-12 -.535E-02 -.858E-14
   0.554E-06 -.286E-13 0.538E+00   -.471E-13 0.115E-12 -.456E+00   0.976E-18 0.217E-18 -.852E-01   -.124E-12 0.156E-13 0.627E-02
   -.506E+01 -.506E+01 0.506E+01   0.509E+01 0.509E+01 -.509E+01   -.248E-01 -.248E-01 0.248E-01   -.590E-02 -.590E-02 0.590E-02
   -.538E+00 -.309E-13 0.179E-12   0.456E+00 0.888E-13 -.162E-12   0.852E-01 -.867E-18 -.152E-17   -.627E-02 -.102E-13 -.151E-13
   0.554E-06 0.538E+00 -.523E-14   -.471E-13 -.456E+00 -.373E-13   0.840E-18 -.852E-01 -.114E-17   -.115E-12 0.627E-02 0.570E-14
   -.416E-06 -.127E-14 -.955E+01   -.120E-12 -.622E-14 0.681E+01   -.434E-18 -.542E-18 0.275E+01   -.105E-12 0.179E-14 -.535E-02
   -.506E+01 0.506E+01 -.506E+01   0.509E+01 -.509E+01 0.509E+01   -.248E-01 0.248E-01 -.248E-01   -.590E-02 0.590E-02 -.590E-02
   0.538E+00 0.148E-12 -.515E-13   -.456E+00 -.657E-13 -.104E-12   -.852E-01 0.217E-18 0.623E-18   0.627E-02 0.500E-14 -.320E-13
   -.557E-06 -.538E+00 -.515E-14   0.657E-13 0.456E+00 0.524E-13   -.481E-18 0.852E-01 -.542E-19   0.109E-12 -.627E-02 0.144E-13
   0.155E-06 -.284E-12 0.782E+00   -.409E-13 -.178E-14 -.801E+00   0.461E-18 -.195E-17 0.230E-01   0.848E-13 0.757E-13 0.344E-02
   0.506E+01 -.506E+01 0.506E+01   -.509E+01 0.509E+01 -.509E+01   0.248E-01 -.248E-01 0.248E-01   0.590E-02 -.590E-02 0.590E-02
   0.538E+00 -.481E-13 0.167E-12   -.456E+00 0.123E-12 0.104E-12   -.852E-01 0.434E-18 -.195E-17   0.627E-02 -.333E-13 -.395E-14
   0.155E-06 0.782E+00 -.258E-12   -.338E-13 -.801E+00 -.147E-12   0.759E-18 0.230E-01 0.434E-18   0.737E-13 0.344E-02 0.632E-13
   -.557E-06 -.151E-13 -.538E+00   0.888E-14 0.666E-13 0.456E+00   -.928E-18 0.813E-19 0.852E-01   0.932E-13 0.270E-13 -.627E-02
   0.506E+01 0.506E+01 -.506E+01   -.509E+01 -.509E+01 0.509E+01   0.248E-01 0.248E-01 -.248E-01   0.590E-02 0.590E-02 -.590E-02
   -.782E+00 0.180E-12 0.178E-12   0.801E+00 0.773E-13 0.250E-12   -.230E-01 0.152E-17 -.542E-18   -.344E-02 -.318E-13 -.307E-13
   -.554E-06 -.538E+00 0.345E-12   0.444E-14 0.456E+00 -.240E-13   0.461E-18 0.852E-01 0.325E-18   -.913E-13 -.627E-02 -.109E-12
   -.554E-06 0.331E-12 -.538E+00   0.444E-14 0.187E-13 0.456E+00   0.325E-18 -.108E-17 0.852E-01   -.116E-12 -.979E-13 -.627E-02
   -.506E+01 -.506E+01 -.506E+01   0.509E+01 0.509E+01 0.509E+01   -.248E-01 -.248E-01 -.248E-01   -.590E-02 -.590E-02 -.590E-02
   0.782E+00 0.181E-12 0.213E-12   -.801E+00 -.190E-12 -.147E-12   0.230E-01 -.152E-17 0.141E-17   0.344E-02 -.197E-13 -.250E-13
   -.155E-06 -.782E+00 0.878E-12   -.163E-12 0.801E+00 0.293E-12   -.325E-18 -.230E-01 0.434E-18   0.711E-13 -.344E-02 -.998E-13
   -.155E-06 0.868E-12 -.782E+00   -.135E-12 -.195E-13 0.801E+00   -.461E-18 0.108E-17 -.230E-01   0.805E-13 -.884E-13 -.344E-02
   0.506E+01 -.506E+01 -.506E+01   -.509E+01 0.509E+01 0.509E+01   0.248E-01 -.248E-01 -.248E-01   0.590E-02 -.590E-02 -.590E-02
 -----------------------------------------------------------------------------------------------
   0.402E-11 0.376E-11 0.395E-11   0.471E-13 0.210E-12 -.183E-12   -.180E-15 0.316E-15 -.534E-15   -.549E-12 -.321E-12 -.469E-12


 POSITION                                       TOTAL-FORCE (eV/Angst)
 -----------------------------------------------------------------------------------
      2.04300      0.00000      0.00000         0.000000      0.000000      0.000000
     -0.04354      0.00000      0.00000        -0.001184      0.000000      0.000000
      2.04300      2.08654      0.00000         0.000000      0.001184      0.000000
      2.04300      0.00000      2.08654         0.000000      0.000000      0.001184
     -0.00654      2.04954      2.04954         0.000273     -0.000273     -0.000273
      4.12954      0.00000      0.00000         0.001184      0.000000      0.000000
      6.12900      2.05070      0.00000         0.000000      0.002760      0.000000
      6.12900      0.00000      2.05070         0.000000      0.000000      0.002760
      4.09254      2.04954      2.04954        -0.000273     -0.000273     -0.000273
     -0.00770      4.08600      0.00000        -0.002760      0.000000      0.000000
      2.04300      6.08546      0.00000         0.000000     -0.001184      0.000000
      2.04300      4.08600      2.05070         0.000000      0.000000      0.002760
     -0.00654      6.12246      2.04954         0.000273      0.000273     -0.000273
     -0.00770      0.00000      4.08600        -0.002760      0.000000      0.000000
      2.04300      2.05070      4.08600         0.000000      0.002760      0.000000
      2.04300      0.00000      6.08546         0.000000      0.000000     -0.001184
     -0.00654      2.04954      6.12246         0.000273     -0.000273      0.000273
      4.09370      4.08600      0.00000         0.002760      0.000000      0.000000
      6.12900      6.12130      0.00000         0.000000     -0.002760      0.000000
      6.12900      4.08600      2.04503         0.000000      0.000000      0.007942
      4.09254      6.12246      2.04954        -0.000273      0.000273     -0.000273
      4.09370      0.00000      4.08600         0.002760      0.000000      0.000000
      6.12900      2.04503      4.08600         0.000000      0.007942      0.000000
      6.12900      0.00000      6.12130         0.000000      0.000000     -0.002760
      4.09254      2.04954      6.12246        -0.000273     -0.000273      0.000273
     -0.00203      4.08600      4.08600        -0.007942      0.000000      0.000000
      2.04300      6.12130      4.08600         0.000000     -0.002760      0.000000
      2.04300      4.08600      6.12130         0.000000      0.000000     -0.002760
     -0.00654      6.12246      6.12246         0.000273      0.000273      0.000273
      4.08803      4.08600      4.08600         0.007942      0.000000      0.000000
      6.12900      6.12697      4.08600         0.000000     -0.007942      0.000000
      6.12900      4.08600      6.12697         0.000000      0.000000     -0.007942
      4.09254      6.12246      6.12246        -0.000273      0.000273      0.000273
 -----------------------------------------------------------------------------------
    total drift:                                0.000000      0.000000      0.000000
 d Force = 0.5536619E-03[ 0.156E-03, 0.951E-03]  d Energy = 0.5922266E-03-0.386E-04
 d Force =-0.1205186E+00[-0.182E+00,-0.592E-01]  d Ewald  =-0.1205198E+00 0.114E-05


--------------------------------------------------------------------------------------------------------


    POTLOK:  cpu time    1.59: real time    1.59


--------------------------------------------------------------------------------------------------------


 Quasi-Newton relaxation of ions (Broydens 2nd method)
  g(Force)  = 0.232E-04   g(Stress)= 0.000E+00

 retain information from N=  1 steps
 eigenvalues of (default step * inverse Hessian matrix)
  average eigenvalue of G=   3.1376
 eigenvalue spectrum of G is  3.1376


--------------------------------------------------------------------------------------------------------


  
 reached required accuracy - stopping structural energy minimisation
     LOOP+:  cpu time 1283.32: real time 1283.26
    4ORBIT:  cpu time    0.00: real time    0.00

 total amount of memory used by VASP on root node 308568. kBytes
========================================================================

   base      :    30000. kBytes
   nonlr-proj:    28080. kBytes
   grid      :    54743. kBytes
   one-center:      513. kBytes
   wavefun   :   195232. kBytes

  
  
 General timing and accounting informations for this job:
 ========================================================
  
                  Total CPU time used (sec):    11374.639
                            User time (sec):    11373.883
                          System time (sec):        0.756
                         Elapsed time (sec):    11382.323
  
                   Maximum memory used (kb):           0.
                   Average memory used (kb):           0.
  
                          Minor page faults:       140049
                          Major page faults:            0
                 Voluntary context switches:            5
