 vasp.5.4.1 24Jun15 (build Dec 18 2016 09:59:45) complex                        
  
 executed on           IFC91_ompi date 2018.09.12  10:16:15
 running on   80 total cores
 distrk:  each k-point on   80 cores,    1 groups
 distr:  one band on NCORES_PER_BAND=  20 cores,    4 groups


--------------------------------------------------------------------------------------------------------


 INCAR:
 POTCAR:    PAW_PBE Fe 06Sep2000                  
 POTCAR:    PAW_PBE Se 06Sep2000                  

 ----------------------------------------------------------------------------- 
|                                                                             |
|           W    W    AA    RRRRR   N    N  II  N    N   GGGG   !!!           |
|           W    W   A  A   R    R  NN   N  II  NN   N  G    G  !!!           |
|           W    W  A    A  R    R  N N  N  II  N N  N  G       !!!           |
|           W WW W  AAAAAA  RRRRR   N  N N  II  N  N N  G  GGG   !            |
|           WW  WW  A    A  R   R   N   NN  II  N   NN  G    G                |
|           W    W  A    A  R    R  N    N  II  N    N   GGGG   !!!           |
|                                                                             |
|      For optimal performance we recommend to set                            |
|        NCORE= 4 - approx SQRT( number of cores)                             |
|      NCORE specifies how many cores store one orbital (NPAR=cpu/NCORE).     |
|      This setting can  greatly improve the performance of VASP for DFT.     |
|      The default, NPAR=number of cores might be grossly inefficient         |
|      on modern multi-core architectures or massively parallel machines.     |
|      Do your own testing !!!!                                               |
|      Unfortunately you need to use the default for GW and RPA calculations. |
|      (for HF NCORE is supported but not extensively tested yet)             |
|                                                                             |
 ----------------------------------------------------------------------------- 

 POTCAR:    PAW_PBE Fe 06Sep2000                  
   VRHFIN =Fe:  d7 s1                                                           
   LEXCH  = PE                                                                  
   EATOM  =   594.3153 eV,   43.6809 Ry                                         
                                                                                
   TITEL  = PAW_PBE Fe 06Sep2000                                                
   LULTRA =        F    use ultrasoft PP ?                                      
   IUNSCR =        1    unscreen: 0-lin 1-nonlin 2-no                           
   RPACOR =    2.000    partial core radius                                     
   POMASS =   55.847; ZVAL   =    8.000    mass and valenz                      
   RCORE  =    2.300    outmost cutoff radius                                   
   RWIGS  =    2.460; RWIGS  =    1.302    wigner-seitz radius (au A)           
   ENMAX  =  267.882; ENMIN  =  200.911 eV                                      
   RCLOC  =    1.701    cutoff for local pot                                    
   LCOR   =        T    correct aug charges                                     
   LPAW   =        T    paw PP                                                  
   EAUG   =  511.368                                                            
   DEXC   =    0.000                                                            
   RMAX   =    2.356    core radius for proj-oper                               
   RAUG   =    1.300    factor for augmentation sphere                          
   RDEP   =    2.442    radius for radial grids                                 
   RDEPT  =    1.890    core radius for aug-charge                              
                                                                                
   Atomic configuration                                                         
    9 entries                                                                   
     n  l   j            E        occ.                                          
     1  0  0.50     -6993.8440   2.0000                                         
     2  0  0.50      -814.6047   2.0000                                         
     2  1  1.50      -693.3689   6.0000                                         
     3  0  0.50       -89.4732   2.0000                                         
     3  1  1.50       -55.6373   6.0000                                         
     3  2  2.50        -3.8151   7.0000                                         
     4  0  0.50        -4.2551   1.0000                                         
     4  1  1.50        -3.4015   0.0000                                         
     4  3  2.50        -1.3606   0.0000                                         
   Description                                                                  
     l       E           TYP  RCUT    TYP  RCUT                                 
     2     -3.8151135     23  2.300                                             
     2     -5.1756961     23  2.300                                             
     0     -4.2550963     23  2.300                                             
     0      7.2035603     23  2.300                                             
     1     -2.7211652     23  2.300                                             
     1     18.4316424     23  2.300                                             
  local pseudopotential read in
  partial core-charges read in
  partial kinetic energy density read in
  atomic valenz-charges read in
  non local Contribution for L=           2  read in
    real space projection operators read in
  non local Contribution for L=           2  read in
    real space projection operators read in
  non local Contribution for L=           0  read in
    real space projection operators read in
  non local Contribution for L=           0  read in
    real space projection operators read in
  non local Contribution for L=           1  read in
    real space projection operators read in
  non local Contribution for L=           1  read in
    real space projection operators read in
    PAW grid and wavefunctions read in
 
   number of l-projection  operators is LMAX  =           6
   number of lm-projection operators is LMMAX =          18
 
 POTCAR:    PAW_PBE Se 06Sep2000                  
   VRHFIN =Se: s2p4                                                             
   LEXCH  = PE                                                                  
   EATOM  =   257.1286 eV,   18.8984 Ry                                         
                                                                                
   TITEL  = PAW_PBE Se 06Sep2000                                                
   LULTRA =        F    use ultrasoft PP ?                                      
   IUNSCR =        1    unscreen: 0-lin 1-nonlin 2-no                           
   RPACOR =    1.900    partial core radius                                     
   POMASS =   78.960; ZVAL   =    6.000    mass and valenz                      
   RCORE  =    2.100    outmost cutoff radius                                   
   RWIGS  =    2.200; RWIGS  =    1.164    wigner-seitz radius (au A)           
   ENMAX  =  211.555; ENMIN  =  158.666 eV                                      
   ICORE  =        3    local potential                                         
   LCOR   =        T    correct aug charges                                     
   LPAW   =        T    paw PP                                                  
   EAUG   =  446.842                                                            
   DEXC   =    0.000                                                            
   RMAX   =    2.147    core radius for proj-oper                               
   RAUG   =    1.300    factor for augmentation sphere                          
   RDEP   =    2.177    radius for radial grids                                 
   RDEPT  =    1.928    core radius for aug-charge                              
                                                                                
   Atomic configuration                                                         
   10 entries                                                                   
     n  l   j            E        occ.                                          
     1  0  0.50    -12503.4787   2.0000                                         
     2  0  0.50     -1606.9547   2.0000                                         
     2  1  1.50     -1413.3140   6.0000                                         
     3  0  0.50      -213.4885   2.0000                                         
     3  1  1.50      -152.9538   6.0000                                         
     3  2  2.50       -53.1221  10.0000                                         
     4  0  0.50       -17.2865   2.0000                                         
     4  1  0.50        -6.5110   4.0000                                         
     4  2  2.50        -6.8029   0.0000                                         
     4  3  2.50        -6.8029   0.0000                                         
   Description                                                                  
     l       E           TYP  RCUT    TYP  RCUT                                 
     0    -17.2865377     23  2.100                                             
     0    -15.3094411     23  2.100                                             
     1     -6.5110275     23  2.100                                             
     1     -0.0695192     23  2.100                                             
     2     -6.8029130     23  2.100                                             
     3     -1.3605826      7  2.100                                             
  local pseudopotential read in
  partial core-charges read in
  partial kinetic energy density read in
  atomic valenz-charges read in
  non local Contribution for L=           0  read in
    real space projection operators read in
  non local Contribution for L=           0  read in
    real space projection operators read in
  non local Contribution for L=           1  read in
    real space projection operators read in
  non local Contribution for L=           1  read in
    real space projection operators read in
  non local Contribution for L=           2  read in
    real space projection operators read in
    PAW grid and wavefunctions read in
 
   number of l-projection  operators is LMAX  =           5
   number of lm-projection operators is LMMAX =          13
 

 ----------------------------------------------------------------------------- 
|                                                                             |
|  ADVICE TO THIS USER RUNNING 'VASP/VAMP'   (HEAR YOUR MASTER'S VOICE ...):  |
|                                                                             |
|      You have a (more or less) 'large supercell' and for larger cells       |
|      it might be more efficient to use real space projection opertators     |
|      So try LREAL= Auto  in the INCAR   file.                               |
|      Mind: At the moment your POTCAR file does not contain real space       |
|       projectors, and has to be modified,  BUT if you                       |
|      want to do an extremely  accurate calculation you might also keep the  |
|      reciprocal projection scheme          (i.e. LREAL=.FALSE.)             |
|                                                                             |
 ----------------------------------------------------------------------------- 

  PAW_PBE Fe 06Sep2000                  :
 energy of atom  1       EATOM= -594.3153
 kinetic energy error for atom=    0.0088 (will be added to EATOM!!)
  PAW_PBE Se 06Sep2000                  :
 energy of atom  2       EATOM= -257.1286
 kinetic energy error for atom=    0.0020 (will be added to EATOM!!)
 
 
 POSCAR: Poscar file generated with pyCMW        
  positions in cartesian coordinates
  No initial velocities read in
 exchange correlation table for  LEXCH =        8
   RHO(1)=    0.500       N(1)  =     2000
   RHO(2)=  100.500       N(2)  =     4000
 


--------------------------------------------------------------------------------------------------------


 ion  position               nearest neighbor table
   1  0.000  0.000  0.000-  26 2.39  30 2.39  17 2.39  19 2.39   2 2.67   4 2.67   6 2.67   8 2.67

   2  0.250  0.250  0.000-  26 2.39  28 2.39  17 2.39  21 2.39   1 2.67   3 2.67   5 2.67   7 2.67

   3  0.000  0.500  0.000-  28 2.39  32 2.39  17 2.39  19 2.39   2 2.67   4 2.67   6 2.67   8 2.67

   4  0.250  0.750  0.000-  26 2.39  28 2.39  19 2.39  23 2.39   1 2.67   3 2.67   5 2.67   7 2.67

   5  0.500  0.000  0.000-  26 2.39  30 2.39  21 2.39  23 2.39   2 2.67   4 2.67   6 2.67   8 2.67

   6  0.750  0.250  0.000-  30 2.39  32 2.39  17 2.39  21 2.39   1 2.67   3 2.67   5 2.67   7 2.67

   7  0.500  0.500  0.000-  28 2.39  32 2.39  21 2.39  23 2.39   2 2.67   4 2.67   6 2.67   8 2.67

   8  0.750  0.750  0.000-  30 2.39  32 2.39  19 2.39  23 2.39   1 2.67   3 2.67   5 2.67   7 2.67

   9  0.000  0.000  0.500-  18 2.39  22 2.39  25 2.39  27 2.39  10 2.67  12 2.67  14 2.67  16 2.67

  10  0.250  0.250  0.500-  18 2.39  20 2.39  25 2.39  29 2.39   9 2.67  11 2.67  13 2.67  15 2.67

  11  0.000  0.500  0.500-  20 2.39  24 2.39  25 2.39  27 2.39  10 2.67  12 2.67  14 2.67  16 2.67

  12  0.250  0.750  0.500-  18 2.39  20 2.39  27 2.39  31 2.39   9 2.67  11 2.67  13 2.67  15 2.67

  13  0.500  0.000  0.500-  18 2.39  22 2.39  29 2.39  31 2.39  10 2.67  12 2.67  14 2.67  16 2.67

  14  0.750  0.250  0.500-  22 2.39  24 2.39  25 2.39  29 2.39   9 2.67  11 2.67  13 2.67  15 2.67

  15  0.500  0.500  0.500-  20 2.39  24 2.39  29 2.39  31 2.39  10 2.67  12 2.67  14 2.67  16 2.67

  16  0.750  0.750  0.500-  22 2.39  24 2.39  27 2.39  31 2.39   9 2.67  11 2.67  13 2.67  15 2.67

  17  0.000  0.250  0.134-   1 2.39   2 2.39   3 2.39   6 2.39
  18  0.250  0.000  0.367-   9 2.39  10 2.39  12 2.39  13 2.39
  19  0.000  0.750  0.134-   1 2.39   3 2.39   4 2.39   8 2.39
  20  0.250  0.500  0.367-  10 2.39  11 2.39  12 2.39  15 2.39
  21  0.500  0.250  0.134-   2 2.39   5 2.39   6 2.39   7 2.39
  22  0.750  0.000  0.367-   9 2.39  13 2.39  14 2.39  16 2.39
  23  0.500  0.750  0.134-   4 2.39   5 2.39   7 2.39   8 2.39
  24  0.750  0.500  0.367-  11 2.39  14 2.39  15 2.39  16 2.39
  25  0.000  0.250  0.634-   9 2.39  10 2.39  11 2.39  14 2.39
  26  0.250  0.000  0.867-   1 2.39   2 2.39   4 2.39   5 2.39
  27  0.000  0.750  0.634-   9 2.39  11 2.39  12 2.39  16 2.39
  28  0.250  0.500  0.867-   2 2.39   3 2.39   4 2.39   7 2.39
  29  0.500  0.250  0.634-  10 2.39  13 2.39  14 2.39  15 2.39
  30  0.750  0.000  0.867-   1 2.39   5 2.39   6 2.39   8 2.39
  31  0.500  0.750  0.634-  12 2.39  13 2.39  15 2.39  16 2.39
  32  0.750  0.500  0.867-   3 2.39   6 2.39   7 2.39   8 2.39
 
  LATTYP: Found a simple tetragonal cell.
 ALAT       =     7.5460000000
 C/A-ratio  =     1.4643999470
  
  Lattice vectors:
  
 A1 = (   7.5460000000,   0.0000000000,   0.0000000000)
 A2 = (   0.0000000000,   7.5460000000,   0.0000000000)
 A3 = (   0.0000000000,   0.0000000000,  11.0503620000)


Analysis of symmetry for initial positions (statically):
=====================================================================
 Subroutine PRICEL returns following result:
 
  LATTYP: Found a simple tetragonal cell.
 ALAT       =     3.7730000000
 C/A-ratio  =     1.4643999470
  
  Lattice vectors:
  
 A1 = (   3.7730000000,   0.0000000000,   0.0000000000)
 A2 = (   0.0000000000,   3.7730000000,   0.0000000000)
 A3 = (   0.0000000000,   0.0000000000,   5.5251810000)
 
   8 primitive cells build up your supercell.
 

 Routine SETGRP: Setting up the symmetry group for a 
 simple tetragonal supercell.


 Subroutine GETGRP returns: Found 16 space group operations
 (whereof  8 operations were pure point group operations)
 out of a pool of 16 trial point group operations.


The static configuration has the point symmetry D_2d.
 The point group associated with its full space group is D_4h.


Analysis of symmetry for dynamics (positions and initial velocities):
=====================================================================
 Subroutine PRICEL returns following result:
 
  LATTYP: Found a simple tetragonal cell.
 ALAT       =     3.7730000000
 C/A-ratio  =     1.4643999470
  
  Lattice vectors:
  
 A1 = (   3.7730000000,   0.0000000000,   0.0000000000)
 A2 = (   0.0000000000,   3.7730000000,   0.0000000000)
 A3 = (   0.0000000000,   0.0000000000,   5.5251810000)
 
   8 primitive cells build up your supercell.
 

 Routine SETGRP: Setting up the symmetry group for a 
 simple tetragonal supercell.


 Subroutine GETGRP returns: Found 16 space group operations
 (whereof  8 operations were pure point group operations)
 out of a pool of 16 trial point group operations.


The dynamic configuration has the point symmetry D_2d.
 The point group associated with its full space group is D_4h.


Analysis of structural, dynamic, and magnetic symmetry:
=====================================================================
 Subroutine PRICEL returns:
 Original cell was already a primitive cell.
 

 Routine SETGRP: Setting up the symmetry group for a 
 simple tetragonal supercell.


 Subroutine GETGRP returns: Found  2 space group operations
 (whereof  1 operations were pure point group operations)
 out of a pool of 16 trial point group operations.


The (compounded) configuration has the point symmetry C_1 .
 The point group associated with its full space group is C_2 .
 
 
 KPOINTS: Kpoints file generated with pyCMW       

Automatic generation of k-mesh.
Space group operators:
 irot       det(A)        alpha          n_x          n_y          n_z        tau_x        tau_y        tau_z
    1     1.000000     0.000001     1.000000     0.000000     0.000000     0.000000     0.000000     0.000000
    2     1.000000   179.999999     0.707107     0.707107     0.000000     0.000000     0.000000     0.500000
 
 Subroutine IBZKPT returns following result:
 ===========================================
 
 Found     72 irreducible k-points:
 
 Following reciprocal coordinates:
            Coordinates               Weight
  0.083333  0.083333  0.125000      2.000000
  0.250000  0.083333  0.125000      2.000000
  0.416667  0.083333  0.125000      2.000000
 -0.416667  0.083333  0.125000      2.000000
 -0.250000  0.083333  0.125000      2.000000
 -0.083333  0.083333  0.125000      2.000000
  0.083333  0.250000  0.125000      2.000000
  0.250000  0.250000  0.125000      2.000000
  0.416667  0.250000  0.125000      2.000000
 -0.416667  0.250000  0.125000      2.000000
 -0.250000  0.250000  0.125000      2.000000
 -0.083333  0.250000  0.125000      2.000000
  0.083333  0.416667  0.125000      2.000000
  0.250000  0.416667  0.125000      2.000000
  0.416667  0.416667  0.125000      2.000000
 -0.416667  0.416667  0.125000      2.000000
 -0.250000  0.416667  0.125000      2.000000
 -0.083333  0.416667  0.125000      2.000000
  0.083333 -0.416667  0.125000      2.000000
  0.250000 -0.416667  0.125000      2.000000
  0.416667 -0.416667  0.125000      2.000000
 -0.416667 -0.416667  0.125000      2.000000
 -0.250000 -0.416667  0.125000      2.000000
 -0.083333 -0.416667  0.125000      2.000000
  0.083333 -0.250000  0.125000      2.000000
  0.250000 -0.250000  0.125000      2.000000
  0.416667 -0.250000  0.125000      2.000000
 -0.416667 -0.250000  0.125000      2.000000
 -0.250000 -0.250000  0.125000      2.000000
 -0.083333 -0.250000  0.125000      2.000000
  0.083333 -0.083333  0.125000      2.000000
  0.250000 -0.083333  0.125000      2.000000
  0.416667 -0.083333  0.125000      2.000000
 -0.416667 -0.083333  0.125000      2.000000
 -0.250000 -0.083333  0.125000      2.000000
 -0.083333 -0.083333  0.125000      2.000000
  0.083333  0.083333  0.375000      2.000000
  0.250000  0.083333  0.375000      2.000000
  0.416667  0.083333  0.375000      2.000000
 -0.416667  0.083333  0.375000      2.000000
 -0.250000  0.083333  0.375000      2.000000
 -0.083333  0.083333  0.375000      2.000000
  0.083333  0.250000  0.375000      2.000000
  0.250000  0.250000  0.375000      2.000000
  0.416667  0.250000  0.375000      2.000000
 -0.416667  0.250000  0.375000      2.000000
 -0.250000  0.250000  0.375000      2.000000
 -0.083333  0.250000  0.375000      2.000000
  0.083333  0.416667  0.375000      2.000000
  0.250000  0.416667  0.375000      2.000000
  0.416667  0.416667  0.375000      2.000000
 -0.416667  0.416667  0.375000      2.000000
 -0.250000  0.416667  0.375000      2.000000
 -0.083333  0.416667  0.375000      2.000000
  0.083333 -0.416667  0.375000      2.000000
  0.250000 -0.416667  0.375000      2.000000
  0.416667 -0.416667  0.375000      2.000000
 -0.416667 -0.416667  0.375000      2.000000
 -0.250000 -0.416667  0.375000      2.000000
 -0.083333 -0.416667  0.375000      2.000000
  0.083333 -0.250000  0.375000      2.000000
  0.250000 -0.250000  0.375000      2.000000
  0.416667 -0.250000  0.375000      2.000000
 -0.416667 -0.250000  0.375000      2.000000
 -0.250000 -0.250000  0.375000      2.000000
 -0.083333 -0.250000  0.375000      2.000000
  0.083333 -0.083333  0.375000      2.000000
  0.250000 -0.083333  0.375000      2.000000
  0.416667 -0.083333  0.375000      2.000000
 -0.416667 -0.083333  0.375000      2.000000
 -0.250000 -0.083333  0.375000      2.000000
 -0.083333 -0.083333  0.375000      2.000000
 
 Following cartesian coordinates:
            Coordinates               Weight
  0.011043  0.011043  0.011312      2.000000
  0.033130  0.011043  0.011312      2.000000
  0.055217  0.011043  0.011312      2.000000
 -0.055217  0.011043  0.011312      2.000000
 -0.033130  0.011043  0.011312      2.000000
 -0.011043  0.011043  0.011312      2.000000
  0.011043  0.033130  0.011312      2.000000
  0.033130  0.033130  0.011312      2.000000
  0.055217  0.033130  0.011312      2.000000
 -0.055217  0.033130  0.011312      2.000000
 -0.033130  0.033130  0.011312      2.000000
 -0.011043  0.033130  0.011312      2.000000
  0.011043  0.055217  0.011312      2.000000
  0.033130  0.055217  0.011312      2.000000
  0.055217  0.055217  0.011312      2.000000
 -0.055217  0.055217  0.011312      2.000000
 -0.033130  0.055217  0.011312      2.000000
 -0.011043  0.055217  0.011312      2.000000
  0.011043 -0.055217  0.011312      2.000000
  0.033130 -0.055217  0.011312      2.000000
  0.055217 -0.055217  0.011312      2.000000
 -0.055217 -0.055217  0.011312      2.000000
 -0.033130 -0.055217  0.011312      2.000000
 -0.011043 -0.055217  0.011312      2.000000
  0.011043 -0.033130  0.011312      2.000000
  0.033130 -0.033130  0.011312      2.000000
  0.055217 -0.033130  0.011312      2.000000
 -0.055217 -0.033130  0.011312      2.000000
 -0.033130 -0.033130  0.011312      2.000000
 -0.011043 -0.033130  0.011312      2.000000
  0.011043 -0.011043  0.011312      2.000000
  0.033130 -0.011043  0.011312      2.000000
  0.055217 -0.011043  0.011312      2.000000
 -0.055217 -0.011043  0.011312      2.000000
 -0.033130 -0.011043  0.011312      2.000000
 -0.011043 -0.011043  0.011312      2.000000
  0.011043  0.011043  0.033936      2.000000
  0.033130  0.011043  0.033936      2.000000
  0.055217  0.011043  0.033936      2.000000
 -0.055217  0.011043  0.033936      2.000000
 -0.033130  0.011043  0.033936      2.000000
 -0.011043  0.011043  0.033936      2.000000
  0.011043  0.033130  0.033936      2.000000
  0.033130  0.033130  0.033936      2.000000
  0.055217  0.033130  0.033936      2.000000
 -0.055217  0.033130  0.033936      2.000000
 -0.033130  0.033130  0.033936      2.000000
 -0.011043  0.033130  0.033936      2.000000
  0.011043  0.055217  0.033936      2.000000
  0.033130  0.055217  0.033936      2.000000
  0.055217  0.055217  0.033936      2.000000
 -0.055217  0.055217  0.033936      2.000000
 -0.033130  0.055217  0.033936      2.000000
 -0.011043  0.055217  0.033936      2.000000
  0.011043 -0.055217  0.033936      2.000000
  0.033130 -0.055217  0.033936      2.000000
  0.055217 -0.055217  0.033936      2.000000
 -0.055217 -0.055217  0.033936      2.000000
 -0.033130 -0.055217  0.033936      2.000000
 -0.011043 -0.055217  0.033936      2.000000
  0.011043 -0.033130  0.033936      2.000000
  0.033130 -0.033130  0.033936      2.000000
  0.055217 -0.033130  0.033936      2.000000
 -0.055217 -0.033130  0.033936      2.000000
 -0.033130 -0.033130  0.033936      2.000000
 -0.011043 -0.033130  0.033936      2.000000
  0.011043 -0.011043  0.033936      2.000000
  0.033130 -0.011043  0.033936      2.000000
  0.055217 -0.011043  0.033936      2.000000
 -0.055217 -0.011043  0.033936      2.000000
 -0.033130 -0.011043  0.033936      2.000000
 -0.011043 -0.011043  0.033936      2.000000
 


--------------------------------------------------------------------------------------------------------




 Dimension of arrays:
   k-points           NKPTS =     72   k-points in BZ     NKDIM =     72   number of bands    NBANDS=    320
   number of dos      NEDOS =    301   number of ions     NIONS =     32
   non local maximal  LDIM  =      6   non local SUM 2l+1 LMDIM =     18
   total plane-waves  NPLWV = 180000
   max r-space proj   IRMAX =      1   max aug-charges    IRDMAX=  48099
   dimension x,y,z NGX =    50 NGY =   50 NGZ =   72
   dimension x,y,z NGXF=    80 NGYF=   80 NGZF=  108
   support grid    NGXF=   160 NGYF=  160 NGZF=  216
   ions per type =              16  16
 NGX,Y,Z   is equivalent  to a cutoff of  11.02, 11.02, 10.83 a.u.
 NGXF,Y,Z  is equivalent  to a cutoff of  17.62, 17.62, 16.25 a.u.


 I would recommend the setting:
   dimension x,y,z NGX =    49 NGY =   49 NGZ =   72
 SYSTEM =  test_NM_2                               
 POSCAR =  Poscar file generated with pyCMW        

 Startparameter for this run:
   NWRITE =      2    write-flag & timer
   PREC   = high      normal or accurate (medium, high low for compatibility)
   ISTART =      0    job   : 0-new  1-cont  2-samecut
   ICHARG =      1    charge: 1-file 2-atom 10-const
   ISPIN  =      1    spin polarized calculation?
   LNONCOLLINEAR =      T non collinear calculations
   LSORBIT =      F    spin-orbit coupling
   INIWAV =      1    electr: 0-lowe 1-rand  2-diag
   LASPH  =      F    aspherical Exc in radial PAW
   METAGGA=      F    non-selfconsistent MetaGGA calc.

 Electronic Relaxation 1
   ENCUT  =  400.0 eV  29.40 Ry    5.42 a.u.  12.31 12.31 18.02*2*pi/ulx,y,z
   ENINI  =  400.0     initial cutoff
   ENAUG  =  511.4 eV  augmentation charge cutoff
   NELM   =    200;   NELMIN=  2; NELMDL= -5     # of ELM steps 
   EDIFF  = 0.1E-04   stopping-criterion for ELM
   LREAL  =      F    real-space projection
   NLSPLINE    = F    spline interpolate recip. space projectors
   LCOMPAT=      F    compatible to vasp.4.4
   GGA_COMPAT  = T    GGA compatible to vasp.4.4-vasp.4.6
   LMAXPAW     = -100 max onsite density
   LMAXMIX     =    2 max onsite mixed and CHGCAR
   VOSKOWN=      0    Vosko Wilk Nusair interpolation
   ROPT   =    0.00000   0.00000
 Ionic relaxation
   EDIFFG = 0.1E-03   stopping-criterion for IOM
   NSW    =      0    number of steps for IOM
   NBLOCK =      1;   KBLOCK =      1    inner block; outer block 
   IBRION =     -1    ionic relax: 0-MD 1-quasi-New 2-CG
   NFREE  =      0    steps in history (QN), initial steepest desc. (CG)
   ISIF   =      2    stress and relaxation
   IWAVPR =     10    prediction:  0-non 1-charg 2-wave 3-comb
   ISYM   =      2    0-nonsym 1-usesym 2-fastsym
   LCORR  =      T    Harris-Foulkes like correction to forces

   POTIM  = 0.5000    time-step for ionic-motion
   TEIN   =    0.0    initial temperature
   TEBEG  =    0.0;   TEEND  =   0.0 temperature during run
   SMASS  =  -3.00    Nose mass-parameter (am)
   estimated Nose-frequenzy (Omega)   =  0.10E-29 period in steps =****** mass=  -0.130E-26a.u.
   SCALEE = 1.0000    scale energy and forces
   NPACO  =    256;   APACO  = 16.0  distance and # of slots for P.C.
   PSTRESS=    0.0 pullay stress

  Mass of Ions in am
   POMASS =  55.85 78.96
  Ionic Valenz
   ZVAL   =   8.00  6.00
  Atomic Wigner-Seitz radii
   RWIGS  =  -1.00 -1.00
  virtual crystal weights 
   VCA    =   1.00  1.00
   NELECT =     224.0000    total number of electrons
   NUPDOWN=      -1.0000    fix difference up-down

 DOS related values:
   EMIN   =  10.00;   EMAX   =-10.00  energy-range for DOS
   EFERMI =   0.00
   ISMEAR =     1;   SIGMA  =   0.10  broadening in eV -4-tet -1-fermi 0-gaus

 Electronic relaxation 2 (details)
   IALGO  =     68    algorithm
   LDIAG  =      T    sub-space diagonalisation (order eigenvalues)
   LSUBROT=      F    optimize rotation matrix (better conditioning)
   TURBO    =      0    0=normal 1=particle mesh
   IRESTART =      0    0=no restart 2=restart with 2 vectors
   NREBOOT  =      0    no. of reboots
   NMIN     =      0    reboot dimension
   EREF     =   0.00    reference energy to select bands
   IMIX   =      4    mixing-type and parameters
     AMIX     =   0.40;   BMIX     =  1.00
     AMIX_MAG =   1.60;   BMIX_MAG =  1.00
     AMIN     =   0.10
     WC   =   100.;   INIMIX=   1;  MIXPRE=   1;  MAXMIX= -45

 Intra band minimization:
   WEIMIN = 0.0000     energy-eigenvalue tresh-hold
   EBREAK =  0.78E-08  absolut break condition
   DEPER  =   0.30     relativ break condition  

   TIME   =   0.40     timestep for ELM

  volume/ion in A,a.u.               =      19.66       132.70
  Fermi-wavevector in a.u.,A,eV,Ry     =   1.160257  2.192567 18.316107  1.346196
  Thomas-Fermi vector in A             =   2.296841
 
 Write flags
   LWAVE  =      F    write WAVECAR
   LCHARG =      F    write CHGCAR
   LVTOT  =      F    write LOCPOT, total local potential
   LVHAR  =      F    write LOCPOT, Hartree potential only
   LELF   =      F    write electronic localiz. function (ELF)
   LORBIT =     11    0 simple, 1 ext, 2 COOP (PROOUT)


 Dipole corrections
   LMONO  =      F    monopole corrections only (constant potential shift)
   LDIPOL =      F    correct potential (dipole corrections)
   IDIPOL =      0    1-x, 2-y, 3-z, 4-all directions 
   EPSILON=  1.0000000 bulk dielectric constant

 Exchange correlation treatment:
   GGA     =    --    GGA type
   LEXCH   =     8    internal setting for exchange type
   VOSKOWN=      0    Vosko Wilk Nusair interpolation
   LHFCALC =     F    Hartree Fock is set to
   LHFONE  =     F    Hartree Fock one center treatment
   AEXX    =    0.0000 exact exchange contribution

 Linear response parameters
   LEPSILON=     F    determine dielectric tensor
   LRPA    =     F    only Hartree local field effects (RPA)
   LNABLA  =     F    use nabla operator in PAW spheres
   LVEL    =     F    velocity operator in full k-point grid
   LINTERFAST=   F  fast interpolation
   KINTER  =     0    interpolate to denser k-point grid
   CSHIFT  =0.1000    complex shift for real part using Kramers Kronig
   OMEGAMAX=  -1.0    maximum frequency
   DEG_THRESHOLD= 0.2000000E-02 threshold for treating states as degnerate
   RTIME   =    0.100 relaxation time in fs

 Orbital magnetization related:
   ORBITALMAG=     F  switch on orbital magnetization
   LCHIMAG   =     F  perturbation theory with respect to B field
   DQ        =  0.001000  dq finite difference perturbation B field



--------------------------------------------------------------------------------------------------------


 Static calculation
 charge density and potential will be updated during run
 non collinear spin polarized calculation
 RMM-DIIS sequential band-by-band and
  variant of blocked Davidson during initial phase
 perform sub-space diagonalisation
    before iterative eigenvector-optimisation
 modified Broyden-mixing scheme, WC =      100.0
 initial mixing is a Kerker type mixing with AMIX =  0.4000 and BMIX =      1.0000
 Hartree-type preconditioning will be used
 using additional bands          208
 reciprocal scheme for non local part
 use partial core corrections
 calculate Harris-corrections to forces 
   (improved forces if not selfconsistent)
 use gradient corrections 
 use of overlap-Matrix (Vanderbilt PP)
 Methfessel and Paxton  Order N= 1 SIGMA  =   0.10


--------------------------------------------------------------------------------------------------------


  energy-cutoff  :      400.00
  volume of cell :      629.23
      direct lattice vectors                 reciprocal lattice vectors
     7.546000000  0.000000000  0.000000000     0.132520541  0.000000000  0.000000000
     0.000000000  7.546000000  0.000000000     0.000000000  0.132520541  0.000000000
     0.000000000  0.000000000 11.050362000     0.000000000  0.000000000  0.090494773

  length of vectors
     7.546000000  7.546000000 11.050362000     0.132520541  0.132520541  0.090494773


 
 k-points in units of 2pi/SCALE and weight: Kpoints file generated with pyCMW       
   0.01104338  0.01104338  0.01131185       0.014
   0.03313014  0.01104338  0.01131185       0.014
   0.05521689  0.01104338  0.01131185       0.014
  -0.05521689  0.01104338  0.01131185       0.014
  -0.03313014  0.01104338  0.01131185       0.014
  -0.01104338  0.01104338  0.01131185       0.014
   0.01104338  0.03313014  0.01131185       0.014
   0.03313014  0.03313014  0.01131185       0.014
   0.05521689  0.03313014  0.01131185       0.014
  -0.05521689  0.03313014  0.01131185       0.014
  -0.03313014  0.03313014  0.01131185       0.014
  -0.01104338  0.03313014  0.01131185       0.014
   0.01104338  0.05521689  0.01131185       0.014
   0.03313014  0.05521689  0.01131185       0.014
   0.05521689  0.05521689  0.01131185       0.014
  -0.05521689  0.05521689  0.01131185       0.014
  -0.03313014  0.05521689  0.01131185       0.014
  -0.01104338  0.05521689  0.01131185       0.014
   0.01104338 -0.05521689  0.01131185       0.014
   0.03313014 -0.05521689  0.01131185       0.014
   0.05521689 -0.05521689  0.01131185       0.014
  -0.05521689 -0.05521689  0.01131185       0.014
  -0.03313014 -0.05521689  0.01131185       0.014
  -0.01104338 -0.05521689  0.01131185       0.014
   0.01104338 -0.03313014  0.01131185       0.014
   0.03313014 -0.03313014  0.01131185       0.014
   0.05521689 -0.03313014  0.01131185       0.014
  -0.05521689 -0.03313014  0.01131185       0.014
  -0.03313014 -0.03313014  0.01131185       0.014
  -0.01104338 -0.03313014  0.01131185       0.014
   0.01104338 -0.01104338  0.01131185       0.014
   0.03313014 -0.01104338  0.01131185       0.014
   0.05521689 -0.01104338  0.01131185       0.014
  -0.05521689 -0.01104338  0.01131185       0.014
  -0.03313014 -0.01104338  0.01131185       0.014
  -0.01104338 -0.01104338  0.01131185       0.014
   0.01104338  0.01104338  0.03393554       0.014
   0.03313014  0.01104338  0.03393554       0.014
   0.05521689  0.01104338  0.03393554       0.014
  -0.05521689  0.01104338  0.03393554       0.014
  -0.03313014  0.01104338  0.03393554       0.014
  -0.01104338  0.01104338  0.03393554       0.014
   0.01104338  0.03313014  0.03393554       0.014
   0.03313014  0.03313014  0.03393554       0.014
   0.05521689  0.03313014  0.03393554       0.014
  -0.05521689  0.03313014  0.03393554       0.014
  -0.03313014  0.03313014  0.03393554       0.014
  -0.01104338  0.03313014  0.03393554       0.014
   0.01104338  0.05521689  0.03393554       0.014
   0.03313014  0.05521689  0.03393554       0.014
   0.05521689  0.05521689  0.03393554       0.014
  -0.05521689  0.05521689  0.03393554       0.014
  -0.03313014  0.05521689  0.03393554       0.014
  -0.01104338  0.05521689  0.03393554       0.014
   0.01104338 -0.05521689  0.03393554       0.014
   0.03313014 -0.05521689  0.03393554       0.014
   0.05521689 -0.05521689  0.03393554       0.014
  -0.05521689 -0.05521689  0.03393554       0.014
  -0.03313014 -0.05521689  0.03393554       0.014
  -0.01104338 -0.05521689  0.03393554       0.014
   0.01104338 -0.03313014  0.03393554       0.014
   0.03313014 -0.03313014  0.03393554       0.014
   0.05521689 -0.03313014  0.03393554       0.014
  -0.05521689 -0.03313014  0.03393554       0.014
  -0.03313014 -0.03313014  0.03393554       0.014
  -0.01104338 -0.03313014  0.03393554       0.014
   0.01104338 -0.01104338  0.03393554       0.014
   0.03313014 -0.01104338  0.03393554       0.014
   0.05521689 -0.01104338  0.03393554       0.014
  -0.05521689 -0.01104338  0.03393554       0.014
  -0.03313014 -0.01104338  0.03393554       0.014
  -0.01104338 -0.01104338  0.03393554       0.014
 
 k-points in reciprocal lattice and weights: Kpoints file generated with pyCMW       
   0.08333333  0.08333333  0.12500000       0.014
   0.25000000  0.08333333  0.12500000       0.014
   0.41666667  0.08333333  0.12500000       0.014
  -0.41666667  0.08333333  0.12500000       0.014
  -0.25000000  0.08333333  0.12500000       0.014
  -0.08333333  0.08333333  0.12500000       0.014
   0.08333333  0.25000000  0.12500000       0.014
   0.25000000  0.25000000  0.12500000       0.014
   0.41666667  0.25000000  0.12500000       0.014
  -0.41666667  0.25000000  0.12500000       0.014
  -0.25000000  0.25000000  0.12500000       0.014
  -0.08333333  0.25000000  0.12500000       0.014
   0.08333333  0.41666667  0.12500000       0.014
   0.25000000  0.41666667  0.12500000       0.014
   0.41666667  0.41666667  0.12500000       0.014
  -0.41666667  0.41666667  0.12500000       0.014
  -0.25000000  0.41666667  0.12500000       0.014
  -0.08333333  0.41666667  0.12500000       0.014
   0.08333333 -0.41666667  0.12500000       0.014
   0.25000000 -0.41666667  0.12500000       0.014
   0.41666667 -0.41666667  0.12500000       0.014
  -0.41666667 -0.41666667  0.12500000       0.014
  -0.25000000 -0.41666667  0.12500000       0.014
  -0.08333333 -0.41666667  0.12500000       0.014
   0.08333333 -0.25000000  0.12500000       0.014
   0.25000000 -0.25000000  0.12500000       0.014
   0.41666667 -0.25000000  0.12500000       0.014
  -0.41666667 -0.25000000  0.12500000       0.014
  -0.25000000 -0.25000000  0.12500000       0.014
  -0.08333333 -0.25000000  0.12500000       0.014
   0.08333333 -0.08333333  0.12500000       0.014
   0.25000000 -0.08333333  0.12500000       0.014
   0.41666667 -0.08333333  0.12500000       0.014
  -0.41666667 -0.08333333  0.12500000       0.014
  -0.25000000 -0.08333333  0.12500000       0.014
  -0.08333333 -0.08333333  0.12500000       0.014
   0.08333333  0.08333333  0.37500000       0.014
   0.25000000  0.08333333  0.37500000       0.014
   0.41666667  0.08333333  0.37500000       0.014
  -0.41666667  0.08333333  0.37500000       0.014
  -0.25000000  0.08333333  0.37500000       0.014
  -0.08333333  0.08333333  0.37500000       0.014
   0.08333333  0.25000000  0.37500000       0.014
   0.25000000  0.25000000  0.37500000       0.014
   0.41666667  0.25000000  0.37500000       0.014
  -0.41666667  0.25000000  0.37500000       0.014
  -0.25000000  0.25000000  0.37500000       0.014
  -0.08333333  0.25000000  0.37500000       0.014
   0.08333333  0.41666667  0.37500000       0.014
   0.25000000  0.41666667  0.37500000       0.014
   0.41666667  0.41666667  0.37500000       0.014
  -0.41666667  0.41666667  0.37500000       0.014
  -0.25000000  0.41666667  0.37500000       0.014
  -0.08333333  0.41666667  0.37500000       0.014
   0.08333333 -0.41666667  0.37500000       0.014
   0.25000000 -0.41666667  0.37500000       0.014
   0.41666667 -0.41666667  0.37500000       0.014
  -0.41666667 -0.41666667  0.37500000       0.014
  -0.25000000 -0.41666667  0.37500000       0.014
  -0.08333333 -0.41666667  0.37500000       0.014
   0.08333333 -0.25000000  0.37500000       0.014
   0.25000000 -0.25000000  0.37500000       0.014
   0.41666667 -0.25000000  0.37500000       0.014
  -0.41666667 -0.25000000  0.37500000       0.014
  -0.25000000 -0.25000000  0.37500000       0.014
  -0.08333333 -0.25000000  0.37500000       0.014
   0.08333333 -0.08333333  0.37500000       0.014
   0.25000000 -0.08333333  0.37500000       0.014
   0.41666667 -0.08333333  0.37500000       0.014
  -0.41666667 -0.08333333  0.37500000       0.014
  -0.25000000 -0.08333333  0.37500000       0.014
  -0.08333333 -0.08333333  0.37500000       0.014
 
 position of ions in fractional coordinates (direct lattice) 
   0.00000000  0.00000000  0.00000000
   0.25000000  0.25000000  0.00000000
   0.00000000  0.50000000  0.00000000
   0.25000000  0.75000000  0.00000000
   0.50000000  0.00000000  0.00000000
   0.75000000  0.25000000  0.00000000
   0.50000000  0.50000000  0.00000000
   0.75000000  0.75000000  0.00000000
   0.00000000  0.00000000  0.50000002
   0.25000000  0.25000000  0.50000002
   0.00000000  0.50000000  0.50000002
   0.25000000  0.75000000  0.50000002
   0.50000000  0.00000000  0.50000002
   0.75000000  0.25000000  0.50000002
   0.50000000  0.50000000  0.50000002
   0.75000000  0.75000000  0.50000002
   0.00000000  0.25000000  0.13350000
   0.25000000  0.00000000  0.36650001
   0.00000000  0.75000000  0.13350000
   0.25000000  0.50000000  0.36650001
   0.50000000  0.25000000  0.13350000
   0.75000000  0.00000000  0.36650001
   0.50000000  0.75000000  0.13350000
   0.75000000  0.50000000  0.36650001
   0.00000000  0.25000000  0.63350002
   0.25000000  0.00000000  0.86650003
   0.00000000  0.75000000  0.63350002
   0.25000000  0.50000000  0.86650003
   0.50000000  0.25000000  0.63350002
   0.75000000  0.00000000  0.86650003
   0.50000000  0.75000000  0.63350002
   0.75000000  0.50000000  0.86650003
 
 position of ions in cartesian coordinates  (Angst):
   0.00000000  0.00000000  0.00000000
   1.88650000  1.88650000  0.00000000
   0.00000000  3.77300000  0.00000000
   1.88650000  5.65950000  0.00000000
   3.77300000  0.00000000  0.00000000
   5.65950000  1.88650000  0.00000000
   3.77300000  3.77300000  0.00000000
   5.65950000  5.65950000  0.00000000
   0.00000000  0.00000000  5.52518120
   1.88650000  1.88650000  5.52518120
   0.00000000  3.77300000  5.52518120
   1.88650000  5.65950000  5.52518120
   3.77300000  0.00000000  5.52518120
   5.65950000  1.88650000  5.52518120
   3.77300000  3.77300000  5.52518120
   5.65950000  5.65950000  5.52518120
   0.00000000  1.88650000  1.47522338
   1.88650000  0.00000000  4.04995782
   0.00000000  5.65950000  1.47522338
   1.88650000  3.77300000  4.04995782
   3.77300000  1.88650000  1.47522338
   5.65950000  0.00000000  4.04995782
   3.77300000  5.65950000  1.47522338
   5.65950000  3.77300000  4.04995782
   0.00000000  1.88650000  7.00040458
   1.88650000  0.00000000  9.57513902
   0.00000000  5.65950000  7.00040458
   1.88650000  3.77300000  9.57513902
   3.77300000  1.88650000  7.00040458
   5.65950000  0.00000000  9.57513902
   3.77300000  5.65950000  7.00040458
   5.65950000  3.77300000  9.57513902
 
 Euler angles ALPHA=     0.0000000  BETA=     0.0000000

 transformation matrix from SAXIS to cartesian coordinates
 ---------------------------------------------------------
     1.0000000 m_x     0.0000000 m_y     0.0000000 m_z
     0.0000000 m_x     1.0000000 m_y     0.0000000 m_z
     0.0000000 m_x     0.0000000 m_y     1.0000000 m_z

 transformation matrix from cartesian coordinates to SAXIS
 ---------------------------------------------------------
     1.0000000 m_x     0.0000000 m_y     0.0000000 m_z
     0.0000000 m_x     1.0000000 m_y     0.0000000 m_z
     0.0000000 m_x     0.0000000 m_y     1.0000000 m_z




--------------------------------------------------------------------------------------------------------


 k-point  1 :   0.0833 0.0833 0.1250  plane waves:   22874
 k-point  2 :   0.2500 0.0833 0.1250  plane waves:   22874
 k-point  3 :   0.4167 0.0833 0.1250  plane waves:   22848
 k-point  4 :  -0.4167 0.0833 0.1250  plane waves:   22848
 k-point  5 :  -0.2500 0.0833 0.1250  plane waves:   22874
 k-point  6 :  -0.0833 0.0833 0.1250  plane waves:   22874
 k-point  7 :   0.0833 0.2500 0.1250  plane waves:   22874
 k-point  8 :   0.2500 0.2500 0.1250  plane waves:   22856
 k-point  9 :   0.4167 0.2500 0.1250  plane waves:   22850
 k-point 10 :  -0.4167 0.2500 0.1250  plane waves:   22850
 k-point 11 :  -0.2500 0.2500 0.1250  plane waves:   22856
 k-point 12 :  -0.0833 0.2500 0.1250  plane waves:   22874
 k-point 13 :   0.0833 0.4167 0.1250  plane waves:   22848
 k-point 14 :   0.2500 0.4167 0.1250  plane waves:   22850
 k-point 15 :   0.4167 0.4167 0.1250  plane waves:   22868
 k-point 16 :  -0.4167 0.4167 0.1250  plane waves:   22868
 k-point 17 :  -0.2500 0.4167 0.1250  plane waves:   22850
 k-point 18 :  -0.0833 0.4167 0.1250  plane waves:   22848
 k-point 19 :   0.0833-0.4167 0.1250  plane waves:   22848
 k-point 20 :   0.2500-0.4167 0.1250  plane waves:   22850
 k-point 21 :   0.4167-0.4167 0.1250  plane waves:   22868
 k-point 22 :  -0.4167-0.4167 0.1250  plane waves:   22868
 k-point 23 :  -0.2500-0.4167 0.1250  plane waves:   22850
 k-point 24 :  -0.0833-0.4167 0.1250  plane waves:   22848
 k-point 25 :   0.0833-0.2500 0.1250  plane waves:   22874
 k-point 26 :   0.2500-0.2500 0.1250  plane waves:   22856
 k-point 27 :   0.4167-0.2500 0.1250  plane waves:   22850
 k-point 28 :  -0.4167-0.2500 0.1250  plane waves:   22850
 k-point 29 :  -0.2500-0.2500 0.1250  plane waves:   22856
 k-point 30 :  -0.0833-0.2500 0.1250  plane waves:   22874
 k-point 31 :   0.0833-0.0833 0.1250  plane waves:   22874
 k-point 32 :   0.2500-0.0833 0.1250  plane waves:   22874
 k-point 33 :   0.4167-0.0833 0.1250  plane waves:   22848
 k-point 34 :  -0.4167-0.0833 0.1250  plane waves:   22848
 k-point 35 :  -0.2500-0.0833 0.1250  plane waves:   22874
 k-point 36 :  -0.0833-0.0833 0.1250  plane waves:   22874
 k-point 37 :   0.0833 0.0833 0.3750  plane waves:   22928
 k-point 38 :   0.2500 0.0833 0.3750  plane waves:   22864
 k-point 39 :   0.4167 0.0833 0.3750  plane waves:   22846
 k-point 40 :  -0.4167 0.0833 0.3750  plane waves:   22846
 k-point 41 :  -0.2500 0.0833 0.3750  plane waves:   22864
 k-point 42 :  -0.0833 0.0833 0.3750  plane waves:   22928
 k-point 43 :   0.0833 0.2500 0.3750  plane waves:   22864
 k-point 44 :   0.2500 0.2500 0.3750  plane waves:   22854
 k-point 45 :   0.4167 0.2500 0.3750  plane waves:   22856
 k-point 46 :  -0.4167 0.2500 0.3750  plane waves:   22856
 k-point 47 :  -0.2500 0.2500 0.3750  plane waves:   22854
 k-point 48 :  -0.0833 0.2500 0.3750  plane waves:   22864
 k-point 49 :   0.0833 0.4167 0.3750  plane waves:   22846
 k-point 50 :   0.2500 0.4167 0.3750  plane waves:   22856
 k-point 51 :   0.4167 0.4167 0.3750  plane waves:   22862
 k-point 52 :  -0.4167 0.4167 0.3750  plane waves:   22862
 k-point 53 :  -0.2500 0.4167 0.3750  plane waves:   22856
 k-point 54 :  -0.0833 0.4167 0.3750  plane waves:   22846
 k-point 55 :   0.0833-0.4167 0.3750  plane waves:   22846
 k-point 56 :   0.2500-0.4167 0.3750  plane waves:   22856
 k-point 57 :   0.4167-0.4167 0.3750  plane waves:   22862
 k-point 58 :  -0.4167-0.4167 0.3750  plane waves:   22862
 k-point 59 :  -0.2500-0.4167 0.3750  plane waves:   22856
 k-point 60 :  -0.0833-0.4167 0.3750  plane waves:   22846
 k-point 61 :   0.0833-0.2500 0.3750  plane waves:   22864
 k-point 62 :   0.2500-0.2500 0.3750  plane waves:   22854
 k-point 63 :   0.4167-0.2500 0.3750  plane waves:   22856
 k-point 64 :  -0.4167-0.2500 0.3750  plane waves:   22856
 k-point 65 :  -0.2500-0.2500 0.3750  plane waves:   22854
 k-point 66 :  -0.0833-0.2500 0.3750  plane waves:   22864
 k-point 67 :   0.0833-0.0833 0.3750  plane waves:   22928
 k-point 68 :   0.2500-0.0833 0.3750  plane waves:   22864
 k-point 69 :   0.4167-0.0833 0.3750  plane waves:   22846
 k-point 70 :  -0.4167-0.0833 0.3750  plane waves:   22846
 k-point 71 :  -0.2500-0.0833 0.3750  plane waves:   22864
 k-point 72 :  -0.0833-0.0833 0.3750  plane waves:   22928

 maximum and minimum number of plane-waves per node :      1178     1108

 maximum number of plane-waves:     22928
 maximum index in each direction: 
   IXMAX=   12   IYMAX=   12   IZMAX=   17
   IXMIN=  -12   IYMIN=  -12   IZMIN=  -18

 NGX is ok and might be reduce to  50
 NGY is ok and might be reduce to  50
 NGZ is ok and might be reduce to  72

 parallel 3D FFT for wavefunctions:
    minimum data exchange during FFTs selected (reduces bandwidth)
 parallel 3D FFT for charge:
    minimum data exchange during FFTs selected (reduces bandwidth)


 total amount of memory used by VASP on root node   164124. kBytes
========================================================================

   base      :      30000. kBytes
   nonl-proj :      12578. kBytes
   fftplans  :       2951. kBytes
   grid      :       3456. kBytes
   one-center:        124. kBytes
   wavefun   :     115015. kBytes
 
     INWAV:  cpu time    0.0000: real time    0.0001
 Broyden mixing: mesh for mixing (old mesh)
   NGX = 25   NGY = 25   NGZ = 37
  (NGX  = 80   NGY  = 80   NGZ  =108)
  gives a total of  23125 points

 initial charge density was supplied:
 number of electron     224.0000005 magnetization       0.0000000      0.0000000      0.0000000
 keeping initial charge density in first step


--------------------------------------------------------------------------------------------------------


 Maximum index for augmentation-charges         1514 (set IRDMAX)


--------------------------------------------------------------------------------------------------------


 First call to EWALD:  gamma=   0.207
 Maximum number of real-space cells 3x 3x 2
 Maximum number of reciprocal cells 2x 2x 3

 FEWALD executed in parallel
    FEWALD:  cpu time    0.0016: real time    0.0017


----------------------------------------- Iteration    1(   1)  ---------------------------------------


    POTLOK:  cpu time    0.0900: real time    0.1109
    SETDIJ:  cpu time    0.0696: real time    0.0706
     EDDAV:  cpu time   62.0811: real time   62.2333
       DOS:  cpu time    0.0179: real time    0.0179
    --------------------------------------------
      LOOP:  cpu time   62.2621: real time   62.4363

 eigenvalue-minimisations  : 46112
 total energy-change (2. order) : 0.1851759E+04  (-0.7549247E+04)
 number of electron     224.0000005 magnetization       0.0000000      0.0000000     -0.0000000
 augmentation part      224.0000005 magnetization       0.0000000      0.0000000     -0.0000000

 Free energy of the ion-electron system (eV)
  ---------------------------------------------------
  alpha Z        PSCENC =       823.11701655
  Ewald energy   TEWEN  =    -10292.34276986
  -Hartree energ DENC   =     -4405.09304831
  -exchange      EXHF   =         0.00000000
  -V(xc)+E(xc)   XCENC  =        51.58454987
  PAW double counting   =     16569.03690324   -16476.53751827
  entropy T*S    EENTRO =        -0.00001253
  eigenvalues    EBANDS =      1907.86364962
  atomic energy  EATOM  =     13622.93007473
  Solvation  Ediel_sol  =         0.00000000
  ---------------------------------------------------
  free energy    TOTEN  =      1851.75896025 eV

  energy without entropy =     1851.75897278  energy(sigma->0) =     1851.75896442


--------------------------------------------------------------------------------------------------------




----------------------------------------- Iteration    1(   2)  ---------------------------------------


     EDDAV:  cpu time   61.8764: real time   61.9390
       DOS:  cpu time    0.0198: real time    0.0198
    --------------------------------------------
      LOOP:  cpu time   61.8987: real time   61.9640

 eigenvalue-minimisations  : 46080
 total energy-change (2. order) :-0.1738392E+04  (-0.1653138E+04)
 number of electron     224.0000005 magnetization       0.0000000      0.0000000     -0.0000000
 augmentation part      224.0000005 magnetization       0.0000000      0.0000000     -0.0000000

 Free energy of the ion-electron system (eV)
  ---------------------------------------------------
  alpha Z        PSCENC =       823.11701655
  Ewald energy   TEWEN  =    -10292.34276986
  -Hartree energ DENC   =     -4405.09304831
  -exchange      EXHF   =         0.00000000
  -V(xc)+E(xc)   XCENC  =        51.58454987
  PAW double counting   =     16569.03690324   -16476.53751827
  entropy T*S    EENTRO =        -0.00082567
  eigenvalues    EBANDS =       169.47264399
  atomic energy  EATOM  =     13622.93007473
  Solvation  Ediel_sol  =         0.00000000
  ---------------------------------------------------
  free energy    TOTEN  =       113.36714148 eV

  energy without entropy =      113.36796715  energy(sigma->0) =      113.36741670


--------------------------------------------------------------------------------------------------------




----------------------------------------- Iteration    1(   3)  ---------------------------------------


     EDDAV:  cpu time   66.6543: real time   66.7494
       DOS:  cpu time    0.0207: real time    0.0216
    --------------------------------------------
      LOOP:  cpu time   66.6771: real time   66.7732

 eigenvalue-minimisations  : 51120
 total energy-change (2. order) :-0.2360424E+03  (-0.2048797E+03)
 number of electron     224.0000005 magnetization       0.0000000      0.0000000     -0.0000000
 augmentation part      224.0000005 magnetization       0.0000000      0.0000000     -0.0000000

 Free energy of the ion-electron system (eV)
  ---------------------------------------------------
  alpha Z        PSCENC =       823.11701655
  Ewald energy   TEWEN  =    -10292.34276986
  -Hartree energ DENC   =     -4405.09304831
  -exchange      EXHF   =         0.00000000
  -V(xc)+E(xc)   XCENC  =        51.58454987
  PAW double counting   =     16569.03690324   -16476.53751827
  entropy T*S    EENTRO =        -0.00399369
  eigenvalues    EBANDS =       -66.56655778
  atomic energy  EATOM  =     13622.93007473
  Solvation  Ediel_sol  =         0.00000000
  ---------------------------------------------------
  free energy    TOTEN  =      -122.67522831 eV

  energy without entropy =     -122.67123462  energy(sigma->0) =     -122.67389708


--------------------------------------------------------------------------------------------------------




----------------------------------------- Iteration    1(   4)  ---------------------------------------


     EDDAV:  cpu time   70.5041: real time   70.5703
       DOS:  cpu time    0.0219: real time    0.0219
    --------------------------------------------
      LOOP:  cpu time   70.5267: real time   70.5931

 eigenvalue-minimisations  : 55160
 total energy-change (2. order) :-0.2036972E+02  (-0.1976638E+02)
 number of electron     224.0000005 magnetization       0.0000000      0.0000000     -0.0000000
 augmentation part      224.0000005 magnetization       0.0000000      0.0000000     -0.0000000

 Free energy of the ion-electron system (eV)
  ---------------------------------------------------
  alpha Z        PSCENC =       823.11701655
  Ewald energy   TEWEN  =    -10292.34276986
  -Hartree energ DENC   =     -4405.09304831
  -exchange      EXHF   =         0.00000000
  -V(xc)+E(xc)   XCENC  =        51.58454987
  PAW double counting   =     16569.03690324   -16476.53751827
  entropy T*S    EENTRO =        -0.00568529
  eigenvalues    EBANDS =       -86.93458264
  atomic energy  EATOM  =     13622.93007473
  Solvation  Ediel_sol  =         0.00000000
  ---------------------------------------------------
  free energy    TOTEN  =      -143.04494477 eV

  energy without entropy =     -143.03925948  energy(sigma->0) =     -143.04304968


--------------------------------------------------------------------------------------------------------




----------------------------------------- Iteration    1(   5)  ---------------------------------------


     EDDAV:  cpu time   70.0249: real time   70.1301
       DOS:  cpu time    0.0210: real time    0.0210
 


 total charge     
 
# of ion     s       p       d       tot
----------------------------------------
  1        0.380   0.461   6.287   7.128
  2        0.381   0.458   6.262   7.101
  3        0.380   0.459   6.184   7.023
  4        0.380   0.457   6.302   7.140
  5        0.380   0.461   6.288   7.129
  6        0.380   0.458   6.295   7.133
  7        0.380   0.458   6.187   7.026
  8        0.381   0.460   6.251   7.092
  9        0.380   0.461   6.287   7.128
 10        0.381   0.458   6.262   7.101
 11        0.380   0.461   6.288   7.129
 12        0.380   0.458   6.295   7.133
 13        0.380   0.459   6.184   7.023
 14        0.380   0.458   6.302   7.140
 15        0.380   0.458   6.187   7.026
 16        0.381   0.460   6.251   7.092
 17        1.469   2.352   0.074   3.896
 18        1.469   2.352   0.074   3.896
 19        1.469   2.347   0.074   3.890
 20        1.469   2.352   0.074   3.896
 21        1.469   2.352   0.074   3.896
 22        1.469   2.347   0.074   3.890
 23        1.469   2.346   0.074   3.890
 24        1.469   2.346   0.074   3.889
 25        1.470   2.354   0.074   3.897
 26        1.469   2.353   0.074   3.897
 27        1.469   2.337   0.073   3.879
 28        1.470   2.350   0.072   3.892
 29        1.470   2.350   0.072   3.892
 30        1.469   2.337   0.073   3.879
 31        1.469   2.359   0.072   3.901
 32        1.469   2.359   0.072   3.901
------------------------------------------------
tot       29.597  44.938 101.289 175.825
 


 magnetization (x)
 
# of ion     s       p       d       tot
----------------------------------------
  1       -0.000  -0.000  -0.000  -0.000
  2        0.000  -0.000  -0.000  -0.000
  3       -0.000   0.000  -0.000  -0.000
  4        0.000   0.000  -0.000  -0.000
  5       -0.000  -0.000  -0.000  -0.000
  6        0.000  -0.000  -0.000  -0.000
  7       -0.000   0.000   0.000   0.000
  8        0.000   0.000  -0.000  -0.000
  9        0.000  -0.000   0.000   0.000
 10       -0.000   0.000  -0.000  -0.000
 11       -0.000  -0.000  -0.000  -0.000
 12       -0.000  -0.000  -0.000  -0.000
 13        0.000   0.000   0.000   0.000
 14        0.000  -0.000  -0.000  -0.000
 15        0.000   0.000  -0.000  -0.000
 16        0.000  -0.000   0.000   0.000
 17       -0.000  -0.000   0.000  -0.000
 18        0.000   0.000  -0.000   0.000
 19       -0.000  -0.000   0.000  -0.000
 20       -0.000   0.000   0.000   0.000
 21       -0.000   0.000  -0.000   0.000
 22        0.000   0.000   0.000   0.000
 23       -0.000  -0.000   0.000  -0.000
 24       -0.000   0.000  -0.000   0.000
 25        0.000   0.000   0.000   0.000
 26       -0.000  -0.000  -0.000  -0.000
 27       -0.000  -0.000  -0.000  -0.000
 28       -0.000   0.000   0.000   0.000
 29       -0.000  -0.000   0.000  -0.000
 30        0.000  -0.000  -0.000  -0.000
 31       -0.000  -0.000   0.000  -0.000
 32       -0.000   0.000  -0.000  -0.000
------------------------------------------------
tot       -0.000   0.000  -0.000  -0.000
 


 magnetization (y)
 
# of ion     s       p       d       tot
----------------------------------------
  1       -0.000   0.000   0.000   0.000
  2       -0.000  -0.000  -0.000  -0.000
  3       -0.000  -0.000   0.000  -0.000
  4        0.000  -0.000  -0.000  -0.000
  5        0.000  -0.000  -0.000  -0.000
  6       -0.000  -0.000  -0.000  -0.000
  7        0.000  -0.000  -0.000  -0.000
  8       -0.000   0.000   0.000   0.000
  9        0.000   0.000  -0.000  -0.000
 10        0.000  -0.000  -0.000  -0.000
 11       -0.000  -0.000   0.000   0.000
 12       -0.000   0.000   0.000   0.000
 13       -0.000   0.000  -0.000  -0.000
 14        0.000   0.000  -0.000  -0.000
 15        0.000   0.000  -0.000   0.000
 16       -0.000   0.000   0.000   0.000
 17       -0.000   0.000  -0.000   0.000
 18        0.000  -0.000   0.000  -0.000
 19        0.000  -0.000   0.000  -0.000
 20        0.000  -0.000   0.000  -0.000
 21       -0.000   0.000  -0.000   0.000
 22        0.000   0.000   0.000   0.000
 23        0.000  -0.000  -0.000  -0.000
 24       -0.000   0.000   0.000   0.000
 25        0.000  -0.000  -0.000  -0.000
 26       -0.000   0.000  -0.000   0.000
 27       -0.000   0.000   0.000   0.000
 28       -0.000  -0.000   0.000  -0.000
 29        0.000  -0.000   0.000  -0.000
 30        0.000   0.000  -0.000   0.000
 31       -0.000  -0.000  -0.000  -0.000
 32        0.000   0.000   0.000   0.000
------------------------------------------------
tot       -0.000   0.000  -0.000  -0.000
 


 magnetization (z)
 
# of ion     s       p       d       tot
----------------------------------------
  1        0.014   0.027   1.591   1.632
  2       -0.014  -0.026  -1.761  -1.800
  3       -0.018  -0.033  -1.777  -1.827
  4        0.015   0.026   1.595   1.636
  5        0.015   0.027   1.586   1.627
  6        0.015   0.026   1.592   1.633
  7       -0.018  -0.032  -1.777  -1.828
  8        0.019   0.031   1.563   1.613
  9       -0.014  -0.026  -1.591  -1.632
 10        0.014   0.026   1.761   1.800
 11       -0.015  -0.027  -1.586  -1.627
 12       -0.015  -0.026  -1.592  -1.633
 13        0.018   0.033   1.777   1.827
 14       -0.015  -0.026  -1.595  -1.636
 15        0.018   0.033   1.777   1.828
 16       -0.019  -0.031  -1.563  -1.613
 17        0.000  -0.001  -0.000  -0.001
 18       -0.000   0.001   0.000   0.001
 19        0.000  -0.027   0.002  -0.025
 20        0.000   0.001   0.001   0.002
 21       -0.000  -0.001  -0.001  -0.002
 22       -0.000   0.027  -0.002   0.025
 23        0.000  -0.027   0.002  -0.025
 24       -0.000   0.027  -0.002   0.025
 25       -0.000   0.027  -0.002   0.025
 26        0.000  -0.027   0.002  -0.025
 27       -0.000   0.050  -0.006   0.044
 28       -0.000   0.020  -0.004   0.016
 29        0.000  -0.020   0.004  -0.016
 30        0.000  -0.050   0.006  -0.044
 31       -0.000   0.004   0.001   0.006
 32        0.000  -0.004  -0.001  -0.006
------------------------------------------------
tot       -0.000   0.000   0.000   0.000
 
    CHARGE:  cpu time    2.1696: real time    2.1726
    MIXING:  cpu time    0.0041: real time    0.0058
    --------------------------------------------
      LOOP:  cpu time   72.2964: real time   72.4072

 eigenvalue-minimisations  : 54688
 total energy-change (2. order) :-0.7368891E+00  (-0.7336094E+00)
 number of electron     224.0000004 magnetization      -0.0000032     -0.0000032     -0.0000000
 augmentation part       48.5337564 magnetization      -0.0001901     -0.0001901     -0.0000000

 Broyden mixing:
  rms(total) = 0.12537E+01    rms(broyden)= 0.12524E+01
  rms(prec ) = 0.13180E+01
  weight for this iteration     100.00

 Free energy of the ion-electron system (eV)
  ---------------------------------------------------
  alpha Z        PSCENC =       823.11701655
  Ewald energy   TEWEN  =    -10292.34276986
  -Hartree energ DENC   =     -4405.09304831
  -exchange      EXHF   =         0.00000000
  -V(xc)+E(xc)   XCENC  =        51.58454987
  PAW double counting   =     16569.03690324   -16476.53751827
  entropy T*S    EENTRO =        -0.00584393
  eigenvalues    EBANDS =       -87.67131314
  atomic energy  EATOM  =     13622.93007473
  Solvation  Ediel_sol  =         0.00000000
  ---------------------------------------------------
  free energy    TOTEN  =      -143.78183392 eV

  energy without entropy =     -143.77598998  energy(sigma->0) =     -143.77988594


--------------------------------------------------------------------------------------------------------




----------------------------------------- Iteration    1(   6)  ---------------------------------------


    POTLOK:  cpu time    0.0800: real time    0.0801
    SETDIJ:  cpu time    0.0674: real time    0.0676
    EDDIAG:  cpu time   11.3338: real time   11.3393
  RMM-DIIS:  cpu time   33.4013: real time   33.4260
    ORTHCH:  cpu time    4.0092: real time    4.0149
       DOS:  cpu time    0.0201: real time    0.0201
    CHARGE:  cpu time    2.1317: real time    2.1324
    MIXING:  cpu time    0.0020: real time    0.0032
    --------------------------------------------
      LOOP:  cpu time   51.0465: real time   51.0849

 eigenvalue-minimisations  : 48998
 total energy-change (2. order) :-0.1904351E+01  (-0.5134747E+00)
 number of electron     224.0000005 magnetization      -0.0000581     -0.0000581     -0.0000000
 augmentation part       51.2602711 magnetization       0.0002522      0.0002522     -0.0000000

 Broyden mixing:
  rms(total) = 0.15487E+01    rms(broyden)= 0.15483E+01
  rms(prec ) = 0.20350E+01
  weight for this iteration     100.00

 eigenvalues of (default mixing * dielectric matrix)
  average eigenvalue GAMMA=   0.5874
  0.5874

 Free energy of the ion-electron system (eV)
  ---------------------------------------------------
  alpha Z        PSCENC =       823.11701655
  Ewald energy   TEWEN  =    -10292.34276986
  -Hartree energ DENC   =     -4363.57560016
  -exchange      EXHF   =         0.00000000
  -V(xc)+E(xc)   XCENC  =        53.50241190
  PAW double counting   =     16621.45834465   -16527.22197383
  entropy T*S    EENTRO =         0.00385977
  eigenvalues    EBANDS =      -134.75766340
  atomic energy  EATOM  =     13622.93007473
  Solvation  Ediel_sol  =         0.00000000
  ---------------------------------------------------
  free energy    TOTEN  =      -145.68618444 eV

  energy without entropy =     -145.69004421  energy(sigma->0) =     -145.68747103


--------------------------------------------------------------------------------------------------------




----------------------------------------- Iteration    1(   7)  ---------------------------------------


    POTLOK:  cpu time    0.0779: real time    0.0780
    SETDIJ:  cpu time    0.0701: real time    0.0703
    EDDIAG:  cpu time   11.3362: real time   11.3406
  RMM-DIIS:  cpu time   33.4004: real time   33.4654
    ORTHCH:  cpu time    4.0071: real time    4.0121
       DOS:  cpu time    0.0202: real time    0.0202
    CHARGE:  cpu time    2.1381: real time    2.1385
    MIXING:  cpu time    0.0019: real time    0.0019
    --------------------------------------------
      LOOP:  cpu time   51.0532: real time   51.1296

 eigenvalue-minimisations  : 49026
 total energy-change (2. order) :-0.3122812E+01  (-0.3675586E+00)
 number of electron     224.0000005 magnetization      -0.0001050     -0.0001050     -0.0000000
 augmentation part       49.7605636 magnetization      -0.0001224     -0.0001224     -0.0000000

 Broyden mixing:
  rms(total) = 0.30973E+01    rms(broyden)= 0.30969E+01
  rms(prec ) = 0.43183E+01
  weight for this iteration     100.00

 eigenvalues of (default mixing * dielectric matrix)
  average eigenvalue GAMMA=   0.4505
  0.7973  0.1038

 Free energy of the ion-electron system (eV)
  ---------------------------------------------------
  alpha Z        PSCENC =       823.11701655
  Ewald energy   TEWEN  =    -10292.34276986
  -Hartree energ DENC   =     -4380.12228676
  -exchange      EXHF   =         0.00000000
  -V(xc)+E(xc)   XCENC  =        53.88788727
  PAW double counting   =     16682.41896948   -16592.14577347
  entropy T*S    EENTRO =         0.00712138
  eigenvalues    EBANDS =      -117.75935139
  atomic energy  EATOM  =     13622.93007473
  Solvation  Ediel_sol  =         0.00000000
  ---------------------------------------------------
  free energy    TOTEN  =      -148.80899687 eV

  energy without entropy =     -148.81611825  energy(sigma->0) =     -148.81137066


--------------------------------------------------------------------------------------------------------




----------------------------------------- Iteration    1(   8)  ---------------------------------------


    POTLOK:  cpu time    0.0769: real time    0.0769
    SETDIJ:  cpu time    0.0670: real time    0.0670
    EDDIAG:  cpu time   11.3475: real time   11.3938
  RMM-DIIS:  cpu time   33.3798: real time   33.4004
    ORTHCH:  cpu time    4.0402: real time    4.0464
       DOS:  cpu time    0.0231: real time    0.0231
    CHARGE:  cpu time    2.1268: real time    2.1672
    MIXING:  cpu time    0.0019: real time    0.0019
    --------------------------------------------
      LOOP:  cpu time   51.0644: real time   51.1782

 eigenvalue-minimisations  : 48797
 total energy-change (2. order) : 0.3909911E+01  (-0.2017280E+00)
 number of electron     224.0000004 magnetization      -0.0001531     -0.0001531     -0.0000000
 augmentation part       48.7343937 magnetization       0.0000117      0.0000117     -0.0000000

 Broyden mixing:
  rms(total) = 0.67279E+00    rms(broyden)= 0.67216E+00
  rms(prec ) = 0.80053E+00
  weight for this iteration     100.00

 eigenvalues of (default mixing * dielectric matrix)
  average eigenvalue GAMMA=   0.3985
  0.8554  0.2409  0.0990

 Free energy of the ion-electron system (eV)
  ---------------------------------------------------
  alpha Z        PSCENC =       823.11701655
  Ewald energy   TEWEN  =    -10292.34276986
  -Hartree energ DENC   =     -4393.00726876
  -exchange      EXHF   =         0.00000000
  -V(xc)+E(xc)   XCENC  =        54.45073073
  PAW double counting   =     16755.73244172   -16669.61374206
  entropy T*S    EENTRO =        -0.00765328
  eigenvalues    EBANDS =       -97.35803043
  atomic energy  EATOM  =     13622.93007473
  Solvation  Ediel_sol  =         0.00000000
  ---------------------------------------------------
  free energy    TOTEN  =      -144.89908545 eV

  energy without entropy =     -144.89143217  energy(sigma->0) =     -144.89653436


--------------------------------------------------------------------------------------------------------




----------------------------------------- Iteration    1(   9)  ---------------------------------------


    POTLOK:  cpu time    0.0766: real time    0.0766
    SETDIJ:  cpu time    0.0671: real time    0.0671
    EDDIAG:  cpu time   11.3819: real time   11.3860
  RMM-DIIS:  cpu time   34.1774: real time   34.2304
    ORTHCH:  cpu time    4.0130: real time    4.0171
       DOS:  cpu time    0.0222: real time    0.0222
    CHARGE:  cpu time    2.1317: real time    2.1320
    MIXING:  cpu time    0.0024: real time    0.0211
    --------------------------------------------
      LOOP:  cpu time   51.8735: real time   51.9540

 eigenvalue-minimisations  : 50392
 total energy-change (2. order) :-0.3725728E+00  (-0.5661281E-01)
 number of electron     224.0000005 magnetization      -0.0001987     -0.0001987     -0.0000000
 augmentation part       49.2452955 magnetization       0.0001050      0.0001050     -0.0000000

 Broyden mixing:
  rms(total) = 0.10906E+01    rms(broyden)= 0.10904E+01
  rms(prec ) = 0.14535E+01
  weight for this iteration     100.00

 eigenvalues of (default mixing * dielectric matrix)
  average eigenvalue GAMMA=   0.3496
  0.9010  0.0970  0.2002  0.2002

 Free energy of the ion-electron system (eV)
  ---------------------------------------------------
  alpha Z        PSCENC =       823.11701655
  Ewald energy   TEWEN  =    -10292.34276986
  -Hartree energ DENC   =     -4383.63147658
  -exchange      EXHF   =         0.00000000
  -V(xc)+E(xc)   XCENC  =        55.03793355
  PAW double counting   =     16783.74946529   -16697.39383003
  entropy T*S    EENTRO =         0.00482730
  eigenvalues    EBANDS =      -107.94301439
  atomic energy  EATOM  =     13622.93007473
  Solvation  Ediel_sol  =         0.00000000
  ---------------------------------------------------
  free energy    TOTEN  =      -145.27165823 eV

  energy without entropy =     -145.27648553  energy(sigma->0) =     -145.27326733


--------------------------------------------------------------------------------------------------------




----------------------------------------- Iteration    1(  10)  ---------------------------------------


    POTLOK:  cpu time    0.0813: real time    0.0813
    SETDIJ:  cpu time    0.0670: real time    0.0670
    EDDIAG:  cpu time   11.3441: real time   11.3474
  RMM-DIIS:  cpu time   34.0918: real time   34.2106
    ORTHCH:  cpu time    3.9891: real time    4.0100
       DOS:  cpu time    0.0216: real time    0.0216
 


 total charge     
 
# of ion     s       p       d       tot
----------------------------------------
  1        0.387   0.469   6.368   7.223
  2        0.388   0.466   6.258   7.111
  3        0.388   0.467   6.235   7.090
  4        0.387   0.465   6.404   7.256
  5        0.387   0.469   6.365   7.220
  6        0.387   0.463   6.474   7.324
  7        0.388   0.466   6.240   7.094
  8        0.387   0.465   6.196   7.048
  9        0.387   0.469   6.368   7.223
 10        0.388   0.466   6.258   7.111
 11        0.387   0.469   6.365   7.220
 12        0.387   0.463   6.474   7.324
 13        0.388   0.467   6.235   7.090
 14        0.387   0.465   6.404   7.256
 15        0.388   0.466   6.240   7.094
 16        0.387   0.465   6.196   7.048
 17        1.467   2.310   0.072   3.850
 18        1.467   2.310   0.072   3.850
 19        1.468   2.306   0.073   3.846
 20        1.467   2.310   0.072   3.850
 21        1.467   2.310   0.072   3.850
 22        1.468   2.306   0.073   3.846
 23        1.468   2.305   0.073   3.846
 24        1.468   2.305   0.073   3.846
 25        1.468   2.313   0.072   3.853
 26        1.468   2.313   0.072   3.853
 27        1.469   2.302   0.072   3.843
 28        1.468   2.316   0.071   3.854
 29        1.468   2.316   0.071   3.854
 30        1.469   2.302   0.072   3.843
 31        1.467   2.318   0.070   3.856
 32        1.467   2.318   0.070   3.856
------------------------------------------------
tot       29.679  44.421 102.230 176.330
 


 magnetization (x)
 
# of ion     s       p       d       tot
----------------------------------------
  1        0.000   0.000  -0.000   0.000
  2       -0.000  -0.000  -0.000  -0.000
  3       -0.000  -0.000  -0.000  -0.000
  4       -0.000  -0.000  -0.000  -0.000
  5        0.000   0.000   0.000   0.000
  6        0.000   0.000   0.000   0.000
  7       -0.000  -0.000  -0.000  -0.000
  8       -0.000   0.000  -0.000  -0.000
  9        0.000   0.000   0.000   0.000
 10       -0.000  -0.000  -0.000  -0.000
 11        0.000  -0.000  -0.000  -0.000
 12        0.000   0.000   0.000   0.000
 13        0.000   0.000   0.000   0.000
 14       -0.000  -0.000  -0.000  -0.000
 15        0.000   0.000   0.000   0.000
 16        0.000   0.000   0.000   0.000
 17        0.000   0.000  -0.000   0.000
 18       -0.000  -0.000   0.000  -0.000
 19       -0.000   0.000   0.000   0.000
 20       -0.000  -0.000  -0.000  -0.000
 21       -0.000  -0.000   0.000  -0.000
 22       -0.000  -0.000   0.000  -0.000
 23       -0.000  -0.000  -0.000  -0.000
 24       -0.000  -0.000  -0.000  -0.000
 25       -0.000   0.000   0.000   0.000
 26        0.000   0.000   0.000   0.000
 27       -0.000  -0.000   0.000  -0.000
 28        0.000   0.000  -0.000   0.000
 29        0.000   0.000  -0.000   0.000
 30       -0.000  -0.000   0.000  -0.000
 31       -0.000  -0.000  -0.000  -0.000
 32        0.000   0.000   0.000   0.000
------------------------------------------------
tot       -0.000  -0.000   0.000  -0.000
 


 magnetization (y)
 
# of ion     s       p       d       tot
----------------------------------------
  1        0.000   0.000   0.000   0.000
  2       -0.000  -0.000  -0.000  -0.000
  3        0.000   0.000   0.000   0.000
  4       -0.000  -0.000  -0.000  -0.000
  5       -0.000  -0.000  -0.000  -0.000
  6        0.000   0.000   0.000   0.000
  7        0.000   0.000   0.000   0.000
  8        0.000   0.000   0.000   0.000
  9        0.000   0.000  -0.000   0.000
 10       -0.000  -0.000  -0.000  -0.000
 11        0.000   0.000   0.000   0.000
 12        0.000   0.000   0.000   0.000
 13       -0.000  -0.000  -0.000  -0.000
 14       -0.000  -0.000  -0.000  -0.000
 15       -0.000  -0.000  -0.000  -0.000
 16        0.000   0.000  -0.000  -0.000
 17       -0.000  -0.000   0.000  -0.000
 18        0.000   0.000   0.000   0.000
 19       -0.000  -0.000   0.000  -0.000
 20       -0.000  -0.000   0.000  -0.000
 21       -0.000  -0.000  -0.000  -0.000
 22       -0.000   0.000   0.000   0.000
 23       -0.000  -0.000  -0.000  -0.000
 24       -0.000  -0.000  -0.000  -0.000
 25        0.000   0.000   0.000   0.000
 26       -0.000   0.000   0.000   0.000
 27       -0.000  -0.000   0.000  -0.000
 28        0.000   0.000  -0.000   0.000
 29        0.000   0.000  -0.000   0.000
 30       -0.000  -0.000   0.000  -0.000
 31        0.000   0.000   0.000   0.000
 32       -0.000  -0.000  -0.000  -0.000
------------------------------------------------
tot       -0.000  -0.000  -0.000  -0.000
 


 magnetization (z)
 
# of ion     s       p       d       tot
----------------------------------------
  1        0.010   0.019   1.803   1.833
  2       -0.008  -0.015  -2.147  -2.169
  3       -0.014  -0.027  -2.085  -2.126
  4        0.011   0.020   1.791   1.821
  5        0.010   0.020   1.793   1.823
  6        0.010   0.020   1.724   1.754
  7       -0.014  -0.026  -2.096  -2.137
  8        0.016   0.028   1.756   1.801
  9       -0.010  -0.019  -1.803  -1.833
 10        0.008   0.015   2.147   2.169
 11       -0.010  -0.020  -1.793  -1.823
 12       -0.010  -0.020  -1.724  -1.754
 13        0.014   0.027   2.085   2.126
 14       -0.011  -0.020  -1.791  -1.821
 15        0.014   0.026   2.096   2.137
 16       -0.016  -0.028  -1.756  -1.801
 17       -0.000   0.004   0.000   0.004
 18        0.000  -0.004  -0.000  -0.004
 19        0.000  -0.026   0.001  -0.025
 20        0.000  -0.005   0.000  -0.004
 21       -0.000   0.005  -0.000   0.004
 22       -0.000   0.026  -0.001   0.025
 23        0.000  -0.025   0.001  -0.024
 24       -0.000   0.025  -0.001   0.024
 25       -0.000   0.023  -0.001   0.022
 26        0.000  -0.023   0.001  -0.022
 27       -0.000   0.047  -0.003   0.043
 28       -0.001   0.016  -0.002   0.013
 29        0.001  -0.016   0.002  -0.013
 30        0.000  -0.047   0.003  -0.043
 31        0.001   0.011   0.001   0.012
 32       -0.001  -0.011  -0.001  -0.012
------------------------------------------------
tot        0.000  -0.000  -0.000  -0.000
 
    CHARGE:  cpu time    2.1235: real time    2.1300
    MIXING:  cpu time    0.0025: real time    0.0025
    --------------------------------------------
      LOOP:  cpu time   51.7967: real time   51.9465

 eigenvalue-minimisations  : 50225
 total energy-change (2. order) : 0.3280131E+00  (-0.3372919E-01)
 number of electron     224.0000004 magnetization      -0.0001006     -0.0001006     -0.0000000
 augmentation part       49.5662965 magnetization      -0.0003510     -0.0003510     -0.0000000

 Broyden mixing:
  rms(total) = 0.51412E+00    rms(broyden)= 0.51391E+00
  rms(prec ) = 0.59084E+00
  weight for this iteration     100.00

 eigenvalues of (default mixing * dielectric matrix)
  average eigenvalue GAMMA=   0.5947
  1.7165  0.5264  0.5264  0.0975  0.1067

 Free energy of the ion-electron system (eV)
  ---------------------------------------------------
  alpha Z        PSCENC =       823.11701655
  Ewald energy   TEWEN  =    -10292.34276986
  -Hartree energ DENC   =     -4377.61720767
  -exchange      EXHF   =         0.00000000
  -V(xc)+E(xc)   XCENC  =        55.57499590
  PAW double counting   =     16808.97122762   -16722.70429951
  entropy T*S    EENTRO =         0.00736906
  eigenvalues    EBANDS =      -114.08016711
  atomic energy  EATOM  =     13622.93007473
  Solvation  Ediel_sol  =         0.00000000
  ---------------------------------------------------
  free energy    TOTEN  =      -144.94364509 eV

  energy without entropy =     -144.95101414  energy(sigma->0) =     -144.94610144


--------------------------------------------------------------------------------------------------------




----------------------------------------- Iteration    1(  11)  ---------------------------------------


    POTLOK:  cpu time    0.0768: real time    0.0768
    SETDIJ:  cpu time    0.0667: real time    0.0667
[...]
 16       -0.000  -0.000  -0.000  -0.000
 17        0.000   0.000  -0.000   0.000
 18        0.000   0.000  -0.000   0.000
 19        0.000  -0.000   0.000  -0.000
 20        0.000  -0.000  -0.000   0.000
 21        0.000   0.000  -0.000   0.000
 22        0.000   0.000   0.000   0.000
 23        0.000   0.000   0.000   0.000
 24        0.000  -0.000   0.000  -0.000
 25        0.000   0.000  -0.000   0.000
 26        0.000   0.000  -0.000   0.000
 27        0.000   0.000  -0.000   0.000
 28       -0.000   0.000   0.000   0.000
 29        0.000   0.000   0.000   0.000
 30        0.000   0.000  -0.000   0.000
 31        0.000   0.000  -0.000   0.000
 32       -0.000   0.000  -0.000  -0.000
------------------------------------------------
tot       -0.000   0.000  -0.001  -0.001
 


 magnetization (z)
 
# of ion     s       p       d       tot
----------------------------------------
  1        0.012   0.022   2.020   2.054
  2       -0.011  -0.020  -2.321  -2.352
  3       -0.018  -0.034  -2.302  -2.354
  4        0.013   0.023   2.028   2.064
  5        0.012   0.023   2.012   2.046
  6        0.012   0.021   1.932   1.964
  7       -0.018  -0.033  -2.310  -2.361
  8        0.018   0.032   1.783   1.832
  9       -0.012  -0.022  -2.020  -2.054
 10        0.011   0.020   2.321   2.352
 11       -0.012  -0.023  -2.012  -2.046
 12       -0.012  -0.021  -1.932  -1.964
 13        0.018   0.034   2.302   2.354
 14       -0.013  -0.023  -2.028  -2.064
 15        0.018   0.033   2.310   2.361
 16       -0.018  -0.032  -1.783  -1.832
 17       -0.000  -0.002   0.001  -0.002
 18        0.000   0.002  -0.001   0.002
 19        0.001  -0.024   0.001  -0.023
 20        0.000   0.001  -0.000   0.001
 21       -0.000  -0.001   0.000  -0.001
 22       -0.001   0.024  -0.001   0.023
 23        0.000  -0.023   0.001  -0.022
 24       -0.000   0.023  -0.001   0.022
 25       -0.000   0.021  -0.002   0.018
 26        0.000  -0.021   0.002  -0.018
 27       -0.001   0.045  -0.003   0.041
 28       -0.001   0.000  -0.002  -0.003
 29        0.001  -0.000   0.002   0.003
 30        0.001  -0.045   0.003  -0.041
 31        0.001   0.017   0.001   0.018
 32       -0.001  -0.017  -0.001  -0.018
------------------------------------------------
tot        0.000   0.000  -0.000  -0.000
 
    CHARGE:  cpu time    2.1369: real time    2.1374
    FORLOC:  cpu time    0.0026: real time    0.0026
    FORNL :  cpu time   27.6458: real time   27.6524
    STRESS:  cpu time   20.0064: real time   20.0519
    FORCOR:  cpu time    0.0654: real time    0.0676
    FORHAR:  cpu time    0.0078: real time    0.0082
    MIXING:  cpu time    0.0231: real time    0.0231
    OFIELD:  cpu time    0.0004: real time    0.0014

  FORCE on cell =-STRESS in cart. coord.  units (eV):
  Direction    XX          YY          ZZ          XY          YZ          ZX
  --------------------------------------------------------------------------------------
  Alpha Z   823.11702   823.11702   823.11702
  Ewald   -1652.68089 -1652.68089 -6987.02728    -0.00000    -0.00000     0.00000
  Hartree  2835.18948  2835.18948 -1303.71185     0.08056    -0.50004     0.50004
  E(xc)    -987.98589  -987.98589  -992.46764    -0.00998     0.07418    -0.07418
  Local   -4074.25252 -4074.25252  5348.23318    -0.20379     0.55934    -0.55934
  n-local   231.35869   231.35879   225.46910    -0.03703     0.86755    -0.87028
  augment   538.24670   538.24670   559.45968     0.07836    -0.71336     0.71615
  Kinetic  2275.12470  2275.12456  2328.33455     0.20045    -1.56021     1.56008
  Fock        0.00000     0.00000     0.00000     0.00000     0.00000     0.00000
  -------------------------------------------------------------------------------------
  Total     -11.88272   -11.88272     1.40676     0.10858    -1.27251     1.27251
  in kB     -30.25634   -30.25634     3.58195     0.27646    -3.24012     3.24012
  external pressure =      -18.98 kB  Pullay stress =        0.00 kB


 VOLUME and BASIS-vectors are now :
 -----------------------------------------------------------------------------
  energy-cutoff  :      400.00
  volume of cell :      629.23
      direct lattice vectors                 reciprocal lattice vectors
     7.546000000  0.000000000  0.000000000     0.132520541  0.000000000  0.000000000
     0.000000000  7.546000000  0.000000000     0.000000000  0.132520541  0.000000000
     0.000000000  0.000000000 11.050362000     0.000000000  0.000000000  0.090494773

  length of vectors
     7.546000000  7.546000000 11.050362000     0.132520541  0.132520541  0.090494773


 FORCES acting on ions
    electron-ion (+dipol)            ewald-force                    non-local-force                 convergence-correction
 -----------------------------------------------------------------------------------------------
   -.332E+00 -.195E+00 0.534E-01   0.764E-13 -.212E-13 0.501E-04   0.735E-01 0.365E-02 0.121E+00   0.840E-05 -.365E-04 0.141E-04
   -.566E-02 0.335E+00 0.236E-01   0.109E-12 -.249E-13 0.501E-04   0.201E-03 -.332E+00 0.654E-02   0.437E-04 0.259E-03 0.466E-05
   0.298E+00 -.210E+00 0.312E+00   0.284E-13 0.818E-14 0.501E-04   -.196E+00 0.230E+00 0.779E-01   0.142E-04 0.328E-04 0.212E-04
   -.120E-02 0.476E+00 -.127E+00   0.584E-13 0.355E-14 0.501E-04   0.293E-02 -.433E+00 -.608E-01   0.424E-04 -.211E-03 0.174E-04
   0.345E+00 -.201E+00 0.436E-01   -.213E-13 0.714E-14 0.501E-04   -.852E-01 0.128E-01 0.116E+00   -.142E-04 -.388E-04 0.410E-05
   -.877E-02 -.619E+00 0.108E+00   0.459E-13 0.000E+00 0.501E-04   0.761E-02 0.471E+00 -.395E-01   -.457E-04 0.218E-03 0.759E-05
   -.278E+00 -.217E+00 0.326E+00   -.711E-13 0.366E-13 0.501E-04   0.179E+00 0.234E+00 0.650E-01   -.857E-05 0.310E-04 0.204E-04
   0.335E-03 0.846E+00 0.394E-01   0.200E-14 0.284E-13 0.501E-04   -.989E-02 -.420E+00 -.126E+00   -.467E-04 -.235E-03 0.165E-04
   -.195E+00 -.332E+00 -.534E-01   0.109E-12 -.142E-13 -.295E-04   0.365E-02 0.735E-01 -.121E+00   -.365E-04 0.840E-05 -.142E-04
   0.335E+00 -.566E-02 -.236E-01   0.108E-12 -.577E-14 -.295E-04   -.332E+00 0.201E-03 -.654E-02   0.259E-03 0.437E-04 -.467E-05
   -.201E+00 0.345E+00 -.437E-01   0.542E-13 0.141E-13 -.295E-04   0.128E-01 -.852E-01 -.116E+00   -.388E-04 -.142E-04 -.411E-05
   -.619E+00 -.877E-02 -.108E+00   0.573E-13 0.231E-13 -.295E-04   0.471E+00 0.761E-02 0.395E-01   0.218E-03 -.457E-04 -.760E-05
   -.210E+00 0.298E+00 -.312E+00   0.129E-13 0.143E-13 -.295E-04   0.230E+00 -.196E+00 -.779E-01   0.328E-04 0.142E-04 -.212E-04
   0.476E+00 -.120E-02 0.127E+00   0.443E-13 0.213E-13 -.295E-04   -.433E+00 0.293E-02 0.608E-01   -.211E-03 0.424E-04 -.174E-04
   -.217E+00 -.278E+00 -.326E+00   -.293E-13 0.425E-13 -.295E-04   0.234E+00 0.179E+00 -.650E-01   0.310E-04 -.857E-05 -.204E-04
   0.846E+00 0.335E-03 -.394E-01   0.225E-16 0.497E-13 -.295E-04   -.420E+00 -.989E-02 0.126E+00   -.235E-03 -.467E-04 -.165E-04
   -.772E-01 -.443E-01 -.214E+03   -.799E-13 -.124E-13 0.216E+03   -.520E-02 -.421E-01 -.242E+01   0.135E-03 0.149E-03 0.272E-04
   -.443E-01 -.772E-01 0.214E+03   0.143E-11 -.149E-11 -.216E+03   -.421E-01 -.520E-02 0.242E+01   0.149E-03 0.135E-03 -.284E-04
   -.307E-01 -.163E+00 -.214E+03   0.137E-11 0.144E-11 0.216E+03   -.119E-01 0.237E-01 -.251E+01   -.146E-03 -.141E-03 -.403E-05
   -.328E-01 0.631E-01 0.214E+03   0.289E-11 -.285E-13 -.216E+03   -.478E-01 0.309E-01 0.241E+01   0.141E-03 -.134E-03 -.351E-04
   0.631E-01 -.328E-01 -.214E+03   -.299E-11 -.142E-13 0.216E+03   0.309E-01 -.478E-01 -.241E+01   -.134E-03 0.141E-03 0.339E-04
   -.163E+00 -.307E-01 0.214E+03   -.147E-11 -.148E-11 -.216E+03   0.237E-01 -.119E-01 0.251E+01   -.141E-03 -.146E-03 0.280E-05
   0.327E-01 -.168E+00 -.214E+03   -.152E-11 0.144E-11 0.216E+03   0.400E-02 0.316E-01 -.248E+01   0.145E-03 -.134E-03 0.564E-05
   -.168E+00 0.327E-01 0.214E+03   -.196E-13 -.250E-13 -.216E+03   0.316E-01 0.400E-02 0.248E+01   -.134E-03 0.145E-03 -.687E-05
   0.237E+00 0.259E-02 -.214E+03   -.675E-13 -.355E-14 0.216E+03   -.241E-01 0.498E-02 -.252E+01   0.112E-03 0.400E-04 0.864E-04
   0.259E-02 0.237E+00 0.214E+03   0.801E-14 -.164E-13 -.216E+03   0.498E-02 -.241E-01 0.252E+01   0.400E-04 0.112E-03 -.852E-04
   -.136E+00 -.143E-02 -.214E+03   -.817E-13 -.533E-14 0.216E+03   0.417E-01 -.640E-02 -.265E+01   -.164E-03 -.389E-04 0.977E-04
   0.161E-01 0.422E+00 0.214E+03   0.922E-14 -.142E-13 -.216E+03   -.315E-01 0.822E-02 0.243E+01   0.283E-04 -.114E-03 0.827E-04
   0.422E+00 0.161E-01 -.214E+03   -.764E-13 -.888E-14 0.216E+03   0.822E-02 -.315E-01 -.243E+01   -.114E-03 0.283E-04 -.815E-04
   -.143E-02 -.136E+00 0.214E+03   0.250E-13 -.173E-13 -.216E+03   -.640E-02 0.417E-01 0.265E+01   -.389E-04 -.164E-03 -.964E-04
   -.106E+00 -.946E-02 -.214E+03   -.604E-13 -.107E-13 0.216E+03   0.319E-01 0.165E-01 -.254E+01   0.167E-03 -.292E-04 -.617E-04
   -.946E-02 -.106E+00 0.214E+03   0.159E-13 -.159E-13 -.216E+03   0.165E-01 0.319E-01 0.254E+01   -.292E-04 0.167E-03 0.629E-04
 -----------------------------------------------------------------------------------------------
   0.238E+00 0.238E+00 -.124E-02   -.416E-13 -.752E-13 -.199E-12   -.238E+00 -.238E+00 0.000E+00   0.268E-04 0.268E-04 -.839E-07
 
 
 POSITION                                       TOTAL-FORCE (eV/Angst)
 -----------------------------------------------------------------------------------
      0.00000      0.00000      0.00000        -0.258410     -0.191179      0.174256
      1.88650      1.88650      0.00000        -0.005421      0.003325      0.030198
      0.00000      3.77300      0.00000         0.101973      0.019198      0.389607
      1.88650      5.65950      0.00000         0.001762      0.042832     -0.187598
      3.77300      0.00000      0.00000         0.259362     -0.188137      0.159284
      5.65950      1.88650      0.00000        -0.001206     -0.148432      0.068945
      3.77300      3.77300      0.00000        -0.098182      0.016491      0.391199
      5.65950      5.65950      0.00000        -0.009604      0.425729     -0.086865
      0.00000      0.00000      5.52518        -0.191179     -0.258410     -0.174256
      1.88650      1.88650      5.52518         0.003325     -0.005421     -0.030198
      0.00000      3.77300      5.52518        -0.188137      0.259362     -0.159284
      1.88650      5.65950      5.52518        -0.148432     -0.001206     -0.068945
      3.77300      0.00000      5.52518         0.019198      0.101973     -0.389607
      5.65950      1.88650      5.52518         0.042832      0.001762      0.187598
      3.77300      3.77300      5.52518         0.016491     -0.098182     -0.391199
      5.65950      5.65950      5.52518         0.425729     -0.009604      0.086865
      0.00000      1.88650      1.47522        -0.082315     -0.086223     -0.379777
      1.88650      0.00000      4.04996        -0.086223     -0.082315      0.379777
      0.00000      5.65950      1.47522        -0.042720     -0.139556     -0.359792
      1.88650      3.77300      4.04996        -0.080510      0.093927      0.380140
      3.77300      1.88650      1.47522         0.093927     -0.080510     -0.380140
      5.65950      0.00000      4.04996        -0.139556     -0.042720      0.359792
      3.77300      5.65950      1.47522         0.036856     -0.136067     -0.355665
      5.65950      3.77300      4.04996        -0.136067      0.036856      0.355665
      0.00000      1.88650      7.00040         0.213241      0.007605     -0.166031
      1.88650      0.00000      9.57514         0.007605      0.213241      0.166031
      0.00000      5.65950      7.00040        -0.094877     -0.007880     -0.149373
      1.88650      3.77300      9.57514        -0.015304      0.430225      0.030255
      3.77300      1.88650      7.00040         0.430225     -0.015304     -0.030255
      5.65950      0.00000      9.57514        -0.007880     -0.094877      0.149373
      3.77300      5.65950      7.00040        -0.073550      0.007048     -0.145063
      5.65950      3.77300      9.57514         0.007048     -0.073550      0.145063
 -----------------------------------------------------------------------------------
    total drift:                                0.000216      0.000217     -0.001236


--------------------------------------------------------------------------------------------------------



  FREE ENERGIE OF THE ION-ELECTRON SYSTEM (eV)
  ---------------------------------------------------
  free  energy   TOTEN  =      -145.07785526 eV

  energy  without entropy=     -145.07785170  energy(sigma->0) =     -145.07785407
 


--------------------------------------------------------------------------------------------------------


    POTLOK:  cpu time    0.1443: real time    0.1449


--------------------------------------------------------------------------------------------------------


     LOOP+:  cpu time 2614.7523: real time 2619.3116
    4ORBIT:  cpu time    0.0000: real time    0.0000
 


 total charge     
 
# of ion     s       p       d       tot
----------------------------------------
  1        0.389   0.473   6.309   7.172
  2        0.393   0.474   6.290   7.157
  3        0.394   0.476   6.286   7.155
  4        0.390   0.470   6.316   7.176
  5        0.389   0.474   6.310   7.172
  6        0.389   0.466   6.327   7.182
  7        0.394   0.476   6.285   7.155
  8        0.390   0.469   6.323   7.182
  9        0.389   0.473   6.309   7.172
 10        0.393   0.474   6.290   7.157
 11        0.389   0.474   6.310   7.172
 12        0.389   0.466   6.327   7.182
 13        0.394   0.476   6.286   7.155
 14        0.390   0.470   6.316   7.176
 15        0.394   0.476   6.285   7.155
 16        0.390   0.469   6.323   7.182
 17        1.467   2.316   0.071   3.854
 18        1.467   2.316   0.071   3.854
 19        1.468   2.309   0.072   3.849
 20        1.467   2.315   0.071   3.854
 21        1.467   2.315   0.071   3.854
 22        1.468   2.309   0.072   3.849
 23        1.467   2.309   0.072   3.849
 24        1.467   2.309   0.072   3.849
 25        1.467   2.315   0.071   3.853
 26        1.467   2.315   0.071   3.853
 27        1.468   2.303   0.072   3.843
 28        1.467   2.324   0.069   3.861
 29        1.467   2.324   0.069   3.861
 30        1.468   2.303   0.072   3.843
 31        1.467   2.321   0.070   3.859
 32        1.467   2.321   0.070   3.859
------------------------------------------------
tot       29.735  44.582 102.027 176.345
 


 magnetization (x)
 
# of ion     s       p       d       tot
----------------------------------------
  1       -0.000  -0.000  -0.001  -0.001
  2        0.000   0.000   0.001   0.001
  3        0.000   0.000   0.001   0.001
  4        0.000   0.000   0.001   0.001
  5       -0.000  -0.000  -0.000  -0.000
  6       -0.000  -0.000  -0.001  -0.002
  7        0.000   0.000   0.000   0.000
  8       -0.000  -0.000  -0.000  -0.000
  9       -0.000  -0.000  -0.000  -0.000
 10       -0.000  -0.000  -0.000  -0.000
 11        0.000   0.000   0.000   0.000
 12       -0.000  -0.000  -0.001  -0.001
 13        0.000   0.000   0.000   0.000
 14       -0.000   0.000   0.001   0.001
 15        0.000   0.000  -0.000  -0.000
 16       -0.000  -0.000  -0.000  -0.000
 17        0.000   0.000  -0.000   0.000
 18        0.000   0.000  -0.000   0.000
 19        0.000   0.000   0.000   0.000
 20        0.000   0.000  -0.000   0.000
 21        0.000  -0.000  -0.000   0.000
 22        0.000  -0.000   0.000   0.000
 23        0.000  -0.000   0.000  -0.000
 24        0.000   0.000   0.000   0.000
 25        0.000   0.000  -0.000   0.000
 26        0.000   0.000  -0.000   0.000
 27        0.000   0.000  -0.000   0.000
 28        0.000   0.000   0.000   0.000
 29       -0.000   0.000   0.000   0.000
 30        0.000   0.000  -0.000   0.000
 31       -0.000   0.000  -0.000  -0.000
 32        0.000   0.000  -0.000   0.000
------------------------------------------------
tot       -0.000   0.000  -0.001  -0.001
 


 magnetization (y)
 
# of ion     s       p       d       tot
----------------------------------------
  1       -0.000  -0.000  -0.000  -0.000
  2       -0.000  -0.000  -0.000  -0.000
  3        0.000   0.000   0.000   0.000
  4       -0.000   0.000   0.001   0.001
  5        0.000   0.000   0.000   0.000
  6       -0.000  -0.000  -0.001  -0.001
  7        0.000   0.000  -0.000  -0.000
  8       -0.000  -0.000  -0.000  -0.000
  9       -0.000  -0.000  -0.001  -0.001
 10        0.000   0.000   0.001   0.001
 11       -0.000  -0.000  -0.000  -0.000
 12       -0.000  -0.000  -0.001  -0.001
 13        0.000   0.000   0.001   0.001
 14        0.000   0.000   0.001   0.001
 15        0.000   0.000   0.000   0.000
 16       -0.000  -0.000  -0.000  -0.000
 17        0.000   0.000  -0.000   0.000
 18        0.000   0.000  -0.000   0.000
 19        0.000  -0.000   0.000  -0.000
 20        0.000  -0.000  -0.000   0.000
 21        0.000   0.000  -0.000   0.000
 22        0.000   0.000   0.000   0.000
 23        0.000   0.000   0.000   0.000
 24        0.000  -0.000   0.000  -0.000
 25        0.000   0.000  -0.000   0.000
 26        0.000   0.000  -0.000   0.000
 27        0.000   0.000  -0.000   0.000
 28       -0.000   0.000   0.000   0.000
 29        0.000   0.000   0.000   0.000
 30        0.000   0.000  -0.000   0.000
 31        0.000   0.000  -0.000   0.000
 32       -0.000   0.000  -0.000  -0.000
------------------------------------------------
tot       -0.000   0.000  -0.001  -0.001
 


 magnetization (z)
 
# of ion     s       p       d       tot
----------------------------------------
  1        0.012   0.022   2.020   2.054
  2       -0.011  -0.020  -2.321  -2.352
  3       -0.018  -0.034  -2.302  -2.354
  4        0.013   0.023   2.028   2.064
  5        0.012   0.023   2.012   2.046
  6        0.012   0.021   1.932   1.964
  7       -0.018  -0.033  -2.310  -2.361
  8        0.018   0.032   1.783   1.832
  9       -0.012  -0.022  -2.020  -2.054
 10        0.011   0.020   2.321   2.352
 11       -0.012  -0.023  -2.012  -2.046
 12       -0.012  -0.021  -1.932  -1.964
 13        0.018   0.034   2.302   2.354
 14       -0.013  -0.023  -2.028  -2.064
 15        0.018   0.033   2.310   2.361
 16       -0.018  -0.032  -1.783  -1.832
 17       -0.000  -0.002   0.001  -0.002
 18        0.000   0.002  -0.001   0.002
 19        0.001  -0.024   0.001  -0.023
 20        0.000   0.001  -0.000   0.001
 21       -0.000  -0.001   0.000  -0.001
 22       -0.001   0.024  -0.001   0.023
 23        0.000  -0.023   0.001  -0.022
 24       -0.000   0.023  -0.001   0.022
 25       -0.000   0.021  -0.002   0.018
 26        0.000  -0.021   0.002  -0.018
 27       -0.001   0.045  -0.003   0.041
 28       -0.001   0.000  -0.002  -0.003
 29        0.001  -0.000   0.002   0.003
 30        0.001  -0.045   0.003  -0.041
 31        0.001   0.017   0.001   0.018
 32       -0.001  -0.017  -0.001  -0.018
------------------------------------------------
tot        0.000   0.000  -0.000  -0.000
 

 total amount of memory used by VASP on root node   164124. kBytes
========================================================================

   base      :      30000. kBytes
   nonl-proj :      12578. kBytes
   fftplans  :       2951. kBytes
   grid      :       3456. kBytes
   one-center:        124. kBytes
   wavefun   :     115015. kBytes
 
  
  
 General timing and accounting informations for this job:
 ========================================================
  
                  Total CPU time used (sec):     2705.081
                            User time (sec):     2679.400
                          System time (sec):       25.680
                         Elapsed time (sec):     2716.647
  
                   Maximum memory used (kb):      463144.
                   Average memory used (kb):           0.
  
                          Minor page faults:       385401
                          Major page faults:            0
                 Voluntary context switches:        13508
