ITEM: TIMESTEP
0
ITEM: NUMBER OF ATOMS
108
ITEM: BOX BOUNDS pp pp pp
0.0000000000000000e+00 1.2150000000000000e+01
0.0000000000000000e+00 1.2149999999999990e+01
0.0000000000000000e+00 1.2149999999999990e+01
ITEM: ATOMS id type xsu ysu zsu fx fy fz 
1 1                    0                    0                    0 -5.55111512312578e-16 2.32730501537048e-14 2.34534613952064e-14 
2 1                    0    0.166666666666629    0.166666666666629 -1.38777878078145e-16 9.71445146547012e-17 2.63677968348475e-16 
3 1    0.166666666666629                    0    0.166666666666629  1.0547118733939e-15 2.37310171513627e-14  2.4980018054066e-16 
4 1    0.166666666666629    0.166666666666629                    0 1.13797860024079e-15 1.21430643318376e-15 2.44734787990808e-14 
5 1                    0    0.333333333333371                    0 -3.19189119579733e-16 -7.63278329429795e-17 2.19685380997703e-14 
6 1                    0                  0.5    0.166666666666629 -6.38378239159465e-16 3.13192126313172e-16 5.27355936696949e-16 
7 1    0.166666666666629    0.333333333333371    0.166666666666629 1.94289029309402e-16 -9.08995101411847e-16 3.59087759527199e-16 
8 1    0.166666666666629                  0.5                    0 1.49880108324396e-15 1.78781550111071e-15 2.45278481498992e-14 
9 1                    0    0.666666666666629                    0 -5.27355936696949e-16 9.29811783123569e-16 2.32938668354166e-14 
10 1                    0    0.833333333333371    0.166666666666629 -5.96744875736022e-15 -2.47198095326695e-14 1.11022302462516e-15 
11 1    0.166666666666629    0.666666666666629    0.166666666666629 2.05391259555654e-15 1.26634813746307e-16 -4.66640615037761e-16 
12 1    0.166666666666629    0.833333333333371                    0 2.88657986402541e-15 -2.39183672867682e-14 2.31065167000111e-14 
13 1    0.333333333333371                    0                    0 -1.00855196590033e-15 2.29551010903599e-14 2.30938688040427e-14 
14 1    0.333333333333371    0.166666666666629    0.166666666666629 -1.46917525888079e-15 3.33371839248559e-16 2.90003752349138e-16 
15 1                  0.5                    0    0.166666666666629 2.07305554016449e-15 2.38018595989393e-14 1.52655665885959e-16 
16 1                  0.5    0.166666666666629                    0 1.95291916318951e-15 1.02695629777827e-15 2.45512838574838e-14 
17 1    0.333333333333371    0.333333333333371                    0 -3.11816544806831e-16 -5.53901949263899e-16 2.32203071061452e-14 
18 1    0.333333333333371                  0.5    0.166666666666629 -3.60307486971245e-16 1.07339308014863e-15 -4.15988044791954e-16 
19 1                  0.5    0.333333333333371    0.166666666666629 1.41214510655716e-15 -1.12757025938492e-16 3.33348122326035e-16 
20 1                  0.5                  0.5                    0 2.86648146625296e-15 1.02176906800928e-15 2.46263614697966e-14 
21 1    0.333333333333371    0.666666666666629                    0 -2.53922859301536e-15 1.48466579742018e-15 2.38161947845386e-14 
22 1    0.333333333333371    0.833333333333371    0.166666666666629 -2.80542733141487e-15 -2.47379631427951e-14 -4.12911621127526e-17 
23 1                  0.5    0.666666666666629    0.166666666666629 -3.6120664305677e-16 -2.60208521396521e-16 1.97758476261356e-16 
24 1                  0.5    0.833333333333371                    0 -5.8261636617582e-16 -2.42583730880597e-14 2.46768886791662e-14 
25 1    0.666666666666629                    0                    0 1.81799020282369e-15 2.40953090813179e-14 2.42913328341032e-14 
26 1    0.666666666666629    0.166666666666629    0.166666666666629 1.04083408558608e-16 4.04190569902596e-16  4.0766001685455e-16 
27 1    0.833333333333371                    0    0.166666666666629 2.08166817117217e-16 2.24299745443801e-14 2.22044604925031e-16 
28 1    0.833333333333371    0.166666666666629                    0 1.94289029309402e-16 1.23512311489549e-15  2.3189783426858e-14 
29 1    0.666666666666629    0.333333333333371                    0 1.08246744900953e-15 1.22921421305544e-16 2.34395836073986e-14 
30 1    0.666666666666629                  0.5    0.166666666666629 1.66533453693773e-16                    0 9.71445146547012e-17 
31 1    0.833333333333371    0.333333333333371    0.166666666666629 -1.38777878078145e-16 -5.70425867998936e-17 3.88578058618805e-16 
32 1    0.833333333333371                  0.5                    0 2.77555756156289e-16 1.26287869051112e-15 2.33493779866478e-14 
33 1    0.666666666666629    0.666666666666629                    0 1.60982338570648e-15 4.77048955893622e-16 2.45012343746964e-14 
34 1    0.666666666666629    0.833333333333371    0.166666666666629 9.97465998686664e-16 -2.32730501537048e-14 9.71445146547012e-17 
35 1    0.833333333333371    0.666666666666629    0.166666666666629 2.66453525910038e-15 1.38777878078145e-15 1.42941214420489e-15 
36 1    0.833333333333371    0.833333333333371                    0 1.66533453693773e-15 -2.39530617562878e-14 2.40224506953268e-14 
37 1                    0                    0    0.333333333333371 -2.77555756156289e-16 2.30891694652513e-14 -8.88178419700125e-16 
38 1                    0    0.166666666666629                  0.5 -5.68989300120393e-16 1.02695629777827e-15 9.47159017883337e-16 
39 1    0.166666666666629                    0                  0.5 1.41553435639707e-15 2.41959230429245e-14 1.55812049460607e-15 
40 1    0.166666666666629    0.166666666666629    0.333333333333371 8.32667268468867e-17 3.90312782094782e-16 -6.24500451351651e-16 
41 1                    0    0.333333333333371    0.333333333333371 -9.71445146547012e-17 6.93889390390723e-17 1.17961196366423e-16 
42 1                    0                  0.5                  0.5 -4.96824803519758e-15 1.97201467395242e-15 8.92854041568969e-16 
43 1    0.166666666666629    0.333333333333371                  0.5 -1.72084568816899e-15 -2.53269627492614e-16 1.02348685082632e-15 
44 1    0.166666666666629                  0.5    0.333333333333371 -1.84574577843932e-15 7.70252239692037e-16 -2.0122792321331e-16 
45 1                    0    0.666666666666629    0.333333333333371 -5.60662627435704e-15 6.24500451351651e-17 2.63677968348475e-16 
46 1                    0    0.833333333333371                  0.5 -5.32907051820075e-15 -2.64267774330307e-14 1.73472347597681e-15 
47 1    0.166666666666629    0.666666666666629                  0.5 5.55111512312578e-17 5.06539254985228e-16 7.52869988573934e-16 
48 1    0.166666666666629    0.833333333333371    0.333333333333371 -1.20736753927986e-15 -2.4605317783255e-14 -9.35015953551499e-16 
49 1    0.333333333333371                    0    0.333333333333371 -3.76163943743846e-16  2.4120791220503e-14 -1.22018484183771e-15 
50 1    0.333333333333371    0.166666666666629                  0.5 -3.75540527494667e-16 -1.10700429942559e-16 1.48073217641313e-15 
51 1                  0.5                    0                  0.5 2.75899637337818e-15  2.4495620240322e-14   7.950827225333e-16 
52 1                  0.5    0.166666666666629    0.333333333333371 1.43258134858906e-15  2.4980018054066e-16 -3.46944695195361e-16 
53 1    0.333333333333371    0.333333333333371    0.333333333333371 -9.20311461587164e-16 -1.06593336587912e-15 -9.09713385351119e-16 
54 1    0.333333333333371                  0.5                  0.5 7.46581615973518e-16 1.84680401059794e-15 6.91422830448318e-16 
55 1                  0.5    0.333333333333371                  0.5 2.33746534497939e-15 -1.21159592775255e-17 6.28417131699754e-16 
56 1                  0.5                  0.5    0.333333333333371 2.38239874876534e-15 4.31658154316159e-16 1.36907629330607e-16 
57 1    0.333333333333371    0.666666666666629    0.333333333333371 -1.19655262260931e-15  6.7776527120679e-16 -2.93649382154121e-16 
58 1    0.333333333333371    0.833333333333371                  0.5 -1.38821246165044e-15 -2.52308109572209e-14 1.80403448798473e-15 
59 1                  0.5    0.666666666666629                  0.5 4.76981193257842e-16 -1.52655665885959e-16 -6.29955343531968e-17 
60 1                  0.5    0.833333333333371    0.333333333333371 -4.78770126842443e-16 -2.48566629518915e-14 -9.68070567285151e-16 
61 1    0.666666666666629                    0    0.333333333333371 1.00613961606655e-15 2.43693953905222e-14 -5.13478148889135e-16 
62 1    0.666666666666629    0.166666666666629                  0.5 2.91433543964104e-16 4.61436444609831e-16 5.13478148889135e-16 
63 1    0.833333333333371                    0                  0.5 2.42861286636753e-16 2.29399832463173e-14 1.08940634291343e-15 
64 1    0.833333333333371    0.166666666666629    0.333333333333371 -7.63278329429795e-17 2.63677968348475e-16 -7.97972798949331e-17 
65 1    0.666666666666629    0.333333333333371    0.333333333333371 8.35343892582191e-17 5.67579837296162e-17 4.27074012005618e-17 
66 1    0.666666666666629                  0.5                  0.5 6.93889390390723e-16 8.15320033709099e-16 -4.63171168085807e-16 
67 1    0.833333333333371    0.333333333333371                  0.5 1.81799020282369e-15 1.30227588695381e-15 2.24820162486594e-15 
68 1    0.833333333333371                  0.5    0.333333333333371  1.8249290967276e-15 2.11983208764366e-15 1.16573417585641e-15 
69 1    0.666666666666629    0.666666666666629    0.333333333333371 1.52829138233557e-15 -3.05311331771918e-16 4.22893057377971e-16 
70 1    0.666666666666629    0.833333333333371                  0.5 2.24820162486594e-15 -2.46434816997265e-14 7.56339435525888e-16 
71 1    0.833333333333371    0.666666666666629                  0.5  4.3159920082303e-15 2.70616862252382e-16 1.38777878078145e-15 
72 1    0.833333333333371    0.833333333333371    0.333333333333371 3.36932765758816e-15 -2.59568706589483e-14 -8.46030060244751e-16 
73 1                    0                    0    0.666666666666629 -5.96744875736022e-16 2.25514051876985e-14 -1.38777878078145e-17 
74 1                    0    0.166666666666629    0.833333333333371 -6.43929354282591e-15 3.88578058618805e-15 -2.51881848711832e-14 
75 1    0.166666666666629                    0    0.833333333333371 3.40005801291454e-15 1.81504117291453e-14 -2.48481790698918e-14 
76 1    0.166666666666629    0.166666666666629    0.666666666666629 1.80411241501588e-15 1.47278023110431e-15 3.92047505570758e-16 
77 1                    0    0.333333333333371    0.666666666666629 -5.68989300120393e-15 -2.92127433354494e-15 7.49400541621981e-16 
78 1                    0                  0.5    0.833333333333371 -4.77395900588817e-15 -1.29398851659787e-15 -2.62290189567693e-14 
79 1    0.166666666666629    0.333333333333371    0.833333333333371 -1.4432899320127e-15  -2.468511506315e-15 -2.52593085336983e-14 
80 1    0.166666666666629                  0.5    0.666666666666629 -4.16333634234434e-16 -4.45823933326039e-16 5.20417042793042e-18 
81 1                    0    0.666666666666629    0.666666666666629 -5.41233724504764e-15 1.33226762955019e-15 -5.41233724504764e-16 
82 1                    0    0.833333333333371    0.833333333333371 -5.28743715477731e-15 -2.34950947586299e-14 -2.61700383585861e-14 
83 1    0.166666666666629    0.666666666666629    0.833333333333371 9.99200722162641e-16 1.73298875250083e-15 -2.37032615757471e-14 
84 1    0.166666666666629    0.833333333333371    0.666666666666629 1.04083408558608e-15 -2.31203944878189e-14 1.35828848168984e-15 
85 1    0.333333333333371                    0    0.666666666666629 -2.66261080024421e-15 2.30807025239105e-14 5.54826909242301e-16 
86 1    0.333333333333371    0.166666666666629    0.833333333333371 -2.94892148894332e-15 1.55498647270123e-15 -2.5147415481366e-14 
87 1                  0.5                    0    0.833333333333371 -5.4917550541822e-16 2.00413517975184e-14 -2.52436960224145e-14 
88 1                  0.5    0.166666666666629    0.666666666666629 -3.36164961004144e-16 1.85962356624714e-15 -2.20309881449055e-16 
89 1    0.333333333333371    0.333333333333371    0.666666666666629 -1.4528851212392e-15 -2.47701232897364e-15 1.37338260880991e-15 
90 1    0.333333333333371                  0.5    0.833333333333371 -1.37414493846244e-15 -7.06293340870315e-16 -2.46439729788359e-14 
91 1                  0.5    0.333333333333371    0.833333333333371 -6.83467497007706e-16 -2.24486770318555e-15 -2.54184897414099e-14 
92 1                  0.5                  0.5    0.666666666666629 2.06167819361697e-16 -1.31887095645641e-15 -4.64905891561784e-16 
93 1    0.333333333333371    0.666666666666629    0.666666666666629 -3.2172886316878e-15 2.08485979131742e-15 2.96309065608499e-16 
94 1    0.333333333333371    0.833333333333371    0.833333333333371 -4.51972714896748e-15 -2.23702553334669e-14 -2.50847621483235e-14 
95 1                  0.5    0.666666666666629    0.833333333333371 -3.34801630863524e-15 1.26981758441502e-15 -2.38004060904018e-14 
96 1                  0.5    0.833333333333371    0.666666666666629 -2.91433543964104e-15 -2.34048891378791e-14 6.52256026967279e-16 
97 1    0.666666666666629                    0    0.666666666666629 1.85962356624714e-15 2.37518338330744e-14 -3.22658566531686e-16 
98 1    0.666666666666629    0.166666666666629    0.833333333333371 1.63410951437015e-15 2.10595429983584e-15 -2.38212227721135e-14 
99 1    0.833333333333371                    0    0.833333333333371 1.98105420956551e-15  1.9744622603568e-14 -2.51465515077598e-14 
100 1    0.833333333333371    0.166666666666629    0.666666666666629 2.81719092498633e-15 3.80251385934116e-15 1.60982338570648e-15 
101 1    0.666666666666629    0.333333333333371    0.666666666666629 2.00707506170517e-15 -2.26685797965771e-15 6.03683769639929e-16 
102 1    0.666666666666629                  0.5    0.833333333333371 2.50494069931051e-15 -1.88564441838679e-15 -2.41300035508374e-14 
103 1    0.833333333333371    0.333333333333371    0.833333333333371 3.46647217224286e-15 -3.2607854675952e-15 -2.65882557940952e-14 
104 1    0.833333333333371                  0.5    0.666666666666629 3.60822483003176e-15 -3.57353036051222e-16 -1.2490009027033e-16 
105 1    0.666666666666629    0.666666666666629    0.666666666666629 3.06005221162309e-15 4.30211422042248e-16 -8.06646416329215e-16 
106 1    0.666666666666629    0.833333333333371    0.833333333333371  3.6498581934552e-15 -2.2310820725624e-14 -2.43940609899462e-14 
107 1    0.833333333333371    0.666666666666629    0.833333333333371 3.35322047906317e-15 1.87350135405495e-15 -2.52957377266938e-14 
108 1    0.833333333333371    0.833333333333371    0.666666666666629 4.13558076672871e-15 -2.48100151534203e-14 8.60422844084496e-16 
ITEM: TIMESTEP
100
ITEM: NUMBER OF ATOMS
108
ITEM: BOX BOUNDS pp pp pp
-6.3737976981686373e-02 1.2213737976981685e+01
-6.3737976981686373e-02 1.2213737976981674e+01
-6.3737976981686373e-02 1.2213737976981674e+01
ITEM: ATOMS id type xsu ysu zsu fx fy fz 
1 1  -0.0213672633951205  -0.0159856636996665  -0.0134788027218633    0.655263189317544     0.43192325583593    0.425340207544289 
2 1 -0.00288049316532124    0.145505477039137    0.169102387356361   -0.168768722752814  -0.0753465746286451   -0.105178884802538 
3 1    0.170721338140083 -0.00277152509681855    0.159122285196077   -0.235049495937396  -0.0764019184101424   0.0293422294483221 
4 1     0.17331768662018    0.165012519347897  0.00122110539666664   -0.598020151705798    0.138784861086464    0.349969855633373 
5 1   -0.017886648994363    0.288225049326684  0.00887696188362952    0.215105263228275    0.398964143424401  -0.0922750507320619 
6 1   0.0167994593253979    0.472313548830357    0.192861788275422     0.01233157017672    0.441455154371945   -0.382918867221816 
7 1    0.176813121075952    0.341792679959326    0.169166715466645    0.335181745060964   -0.472800399608952   0.0527489882180547 
8 1    0.174376464916804    0.500122246834621   0.0206848575411414   -0.488465783151466    0.153717645400106   -0.441086742974539 
9 1   0.0183096941905205     0.66550568208379   -0.018835109509439   0.0287508137612076   -0.356824181851567  -0.0100299417919212 
10 1   0.0121561059987698    0.831457615778504     0.16354790859134   0.0306938879995502  -0.0933023763076824   -0.247320461972655 
11 1    0.181842991391363    0.665408037284237    0.157628865751576  -0.0218836097765964    0.286567516411505   0.0798063921789189 
12 1     0.16710219607387    0.825656409188014 -0.00816837422985373   -0.184662387450573    0.327246983035552   -0.190903086082209 
13 1    0.319731508642803  0.00131238362484964  -0.0132353971488328    0.385623764181748      0.4163364570323   -0.105837691360746 
14 1    0.320992401588001    0.172622105051346     0.17363581597067    0.358045812925545    0.107022411469352   -0.248189563643087 
15 1    0.502653025350128   0.0152956288937958    0.176293134238449   -0.705357579802649   -0.169170268526778   -0.364922940872492 
16 1    0.486967936797555    0.182492176575352 -0.000433614877920263    0.268690063131002   -0.147745691216655   0.0851870756255806 
17 1    0.331732083562315    0.350255127498031 -0.00100454317771437    0.296177755320554   -0.679842695863278    0.545539722080123 
18 1    0.355646230291654    0.492756184145833    0.168898710956569   -0.248843270308653  -0.0446041279522566    0.389820992372805 
19 1    0.506737826324866    0.315183812234636    0.187158574963064   0.0612738123781904    0.800852920446366    -0.63512343948484 
20 1    0.488778177665949    0.515326919454765  -0.0107925055726241     1.42274009471669   -0.860766490876552    0.402542484158639 
21 1    0.346879495879193    0.659339569486178 -0.00803869454574624    -1.04706006351529     1.00924743551306    0.407049000490749 
22 1    0.337969168720292    0.841739153255162    0.128934736618021     0.29253808948321   -0.266581190037662    0.943773560038892 
23 1    0.495364333627435    0.661508305865482    0.159729317068127    0.490759081006586     0.10545473945505    0.388166831612476 
24 1     0.51718695325917    0.814955680298567  0.00162125645385913    0.147999851523538    0.150018216511992   -0.195129174515815 
25 1    0.637764271477863  0.00220607986125287  0.00875281863136479     0.27996895748898   -0.168414154908768   -0.267963594407858 
26 1    0.683350023207481    0.152881204161076    0.185214883338972   -0.781330488686949    0.620720744384094   -0.218270243691822 
27 1    0.821253942776139  -0.0220853363200035    0.149976620823168    0.467696915856643   0.0331533062495694   -0.173952884883387 
28 1    0.793178688779108    0.162269310309625  0.00601881839918406    0.579770036097188    0.111541406305238   -0.336745377675833 
29 1    0.668086878548706    0.351347387059263   0.0390911981619411   -0.247509005950647   -0.242026704603709   -0.914678298422051 
30 1    0.677837041059206    0.504511638578151    0.185456758315127   -0.228600576455764  -0.0412547282907293   0.0923871663438884 
31 1    0.830847776519931    0.334095214084641    0.188189647208105    0.301805322838181   -0.331742280667119   -0.160209128418407 
32 1    0.873832044162441    0.478969998983416  0.00358482972239926   -0.228438008107644  -0.0228203335699592  -0.0670323726953508 
33 1    0.705760884661231     0.63695356330004   0.0094534611699828   -0.459112174091818   -0.252855456506768   -0.137988803865634 
34 1    0.688137374504208    0.796479688204954     0.15737352497581    -0.10686392664564      0.1417522204649    0.268564507995746 
35 1    0.885874256008606     0.63380660422149    0.168117974789311   -0.876716400446934    0.750282951268857   -0.477993559517477 
36 1     0.84689199336799    0.807001683490398  -0.0132158537781493    -0.23499048690189    0.347281821080355    0.249696782315922 
37 1  0.00672133778812167 -0.00257492465749465    0.330968001916631    0.172130590211445  -0.0156368239125457  -0.0426409448668347 
38 1   0.0040855761402554    0.168697735834371     0.52498635994823   -0.213567581382825  -0.0364614030514818   -0.611504896642186 
39 1    0.170694763545498   0.0159956875099851    0.490071561050172   -0.105080983601945   -0.134572694381318    0.243213998848192 
40 1    0.154440252170957    0.189828419482751    0.329308232360745    0.843418926949893   -0.976597868597148    0.297978451031944 
41 1 -0.00312152967813972    0.319169320327205    0.335988759185057   -0.545650393198731    0.167765583021093     0.52430805371148 
42 1  -0.0160907411240601    0.498179462481858    0.495328444986853    0.618305191462194    0.164086937678673    0.377259768177436 
43 1    0.159544301674487    0.332882560297662     0.50514968788093    0.106359229096072    0.252099748283025   -0.102435496486535 
44 1    0.190625370030716    0.502446129396844    0.348088586439189   -0.533523172064323    0.102117715293268   -0.379491368789293 
45 1   0.0290091782650279    0.665954718661169     0.32300448250578  -0.0081279050138543   -0.173778009995892    0.533404748508433 
46 1   0.0112173297088702    0.840766375041767    0.485001737102493   -0.429066638011567   -0.106107239258248    0.352581762104461 
47 1    0.139609687216193    0.669303795688506    0.527044846163108    0.692706533904058  -0.0327370507203287   -0.311624510135159 
48 1    0.175359462929009    0.838848781103934    0.335850445618348  -0.0160691045739986    0.107683841047083    -0.58211097808438 
49 1    0.328904540727535   0.0136480202538678     0.32522744490177   0.0107925071750517   -0.331520312019766    0.208014881679465 
50 1    0.334128718410057    0.167795528922966    0.505288538842592  -0.0948079653531223    0.416484200242895   -0.102709585016779 
51 1    0.498875170152473  0.00589088776632707    0.488499660402795   -0.226380456927011   -0.331510330825813   -0.206585481943779 
52 1    0.493543702512511    0.172255956672529    0.332360881738964    0.279040786552814   -0.513458241848346    0.890594760576737 
53 1    0.346920008136408    0.338550034024934    0.348802813370753   -0.467067826306144    -0.17700764580557  -0.0937797383429175 
54 1    0.325444875046287     0.49724771053468     0.51211381627229   -0.378960963408964    0.437573438766978   -0.249746950293309 
55 1     0.49473337265249    0.346680638866815    0.525244232256227   0.0896824852248162   -0.265584873435277   -0.573900719135241 
56 1    0.500526638928477    0.500150648914655    0.348908740425713  0.00826228942763102  -0.0480789900868792   -0.187476671875125 
57 1    0.333043731066255    0.677560502964866    0.319179800032771    0.202226539128005   -0.145684064586662    0.269254132188472 
58 1    0.326852494631112    0.836240780668049    0.488879521082026   0.0568430167714604    0.422071950081877    0.112632900707592 
59 1    0.485997217092745    0.689466764731492     0.50153907173376    0.510638728878113   -0.693791589342037    -0.47101778197179 
60 1    0.499396003155312     0.83402243639091    0.317466664696326   0.0206432505987412    0.061919978251224     0.01151866756161 
61 1    0.669502656206873  -0.0177054751490573     0.31323894888294   0.0136444680386499   -0.502800819886485    0.646668818481106 
62 1    0.667014171004098    0.145569119414745    0.490998664774565    0.051469159620772    0.638574396706247   -0.192721717410155 
63 1    0.824517871449643 -0.00347102287781809    0.507489515082284     0.82346560694157   0.0098288560951928   -0.809491593431179 
64 1     0.83659591883395    0.133004572021377    0.331144816854589    0.327306855474189     0.53822529516076    0.451558049107538 
65 1    0.680452762882965    0.312501240884785    0.353529995137706   -0.516862632990889    0.460696450808448    -0.24161089062323 
66 1    0.656676167908699    0.510033414715622     0.51435142280252   -0.406737673768193   -0.190073665550266   -0.284547618335213 
67 1    0.837910475407057    0.331915606825305     0.49836864946451   -0.148340079560522   -0.362959747205297    0.255842163081532 
68 1     0.83590218417055    0.504539080880818    0.344378159115877   -0.298062542382777   -0.131012891916349   -0.154733931442032 
69 1    0.657396918043105    0.653979456123579    0.338216352902691    0.173370245128041    0.682715548154833    0.228068061749691 
70 1    0.662044529462833    0.844476537231003    0.494704590195283  -0.0711723278568668   -0.364265909618325   -0.352567381277388 
71 1    0.830752326220249    0.684906108491077    0.487798270090366  -0.0621339402403044   -0.106416459446607   -0.157955026737464 
72 1    0.851571783873851    0.830055623334374    0.319643592786178    -0.34480575292465   -0.107895509310001    0.153997752528249 
73 1 -0.00461189524986594 -0.00710392607624044    0.651142830669755    0.490020102170132   0.0745518118262959     0.33923021306039 
74 1   0.0115632506444854    0.156553332732983    0.835223611982542   -0.420781567842833   0.0015213237062893   -0.204799812637713 
75 1    0.181863986347366   0.0212088760988536     0.80692726920006   -0.266175582496587    -0.37620350628156    0.431887068855833 
76 1    0.176355246358639    0.200602872334343    0.681253522407587   -0.306080706412062   -0.394473435174937    -0.49579236323438 
77 1  -0.0213575453983026    0.325102304391407    0.675020887726305    0.448541918313357    0.556148079904472    0.145106310664483 
78 1 -0.00768386036645552    0.506906756734566    0.815418684316228  -0.0256455180198029   -0.143049738554852    0.183401420461518 
79 1    0.163958920090522    0.347050066532574    0.847247020380678   -0.688533764012118     0.21700435119568    0.180865915109198 
80 1    0.151892679465846    0.496864882381715    0.665439503340053    0.147492062830563  -0.0718181105362547    0.159724621374466 
81 1  -0.0343236010770056    0.677488388467282    0.659013533278312    0.202845759233606   -0.221088723998226   0.0722607784274014 
82 1  0.00221526379243642      0.8441712170453    0.817322041145871   -0.142070785562202  -0.0337251886092306   0.0504587095166631 
83 1    0.160554701183855    0.693806549317856    0.795120329186943  -0.0542730498000386    -1.08966342515955    0.631820841457955 
84 1    0.183577138514693      0.8560287234817    0.668107404189414   -0.112881932355297    0.537769339996146   -0.841422427654297 
85 1    0.357805679696071   0.0152365937278773    0.667230415114886   -0.860686681652436   -0.256938481563459   -0.101723751645967 
86 1     0.32419377989936    0.188106819197628    0.849192424787475    0.686186628594296   -0.275959621418403   -0.541446872844137 
87 1    0.501963898735426   0.0053270496426876     0.83130174428004   -0.164471182875715   -0.200019881403752   0.0996681136441122 
88 1    0.505526129012196    0.168253880693101    0.655830893479447   -0.324566485769106  -0.0186977661537007     0.26932654601974 
89 1     0.33239002887899    0.346700252946675    0.687750903651931   -0.309367248643178  -0.0661600027955561   -0.387883924081942 
90 1    0.322503746990492    0.506089651231832    0.850245511741832   -0.474983730902082    0.263467018421879    -1.20580843473645 
91 1    0.497267911458493    0.349824758135014     0.82658881367081    0.115606044805067   -0.574706308742461    0.323220289459247 
92 1    0.466482605464421    0.513952240286358    0.661600737234266    0.984118280677505    0.465473947944426    0.674658949267333 
93 1    0.340211351177686    0.696429147096183    0.665124023724843   -0.589862778731602   -0.574726923821954   -0.112538179392462 
94 1    0.339941028741009    0.831446813792809    0.847616656065952   0.0813854419214622    0.312601415109617   -0.324066309131143 
95 1    0.493406857557261    0.666387401738007     0.82290252234111    0.246916525504535     0.11851351386209  -0.0905698274775755 
96 1    0.497465351408778     0.84430200314705    0.658461048181039    0.389277546648848    0.275086583678105    0.209315371122363 
97 1    0.667907435906727  0.00358392706152699    0.651298979854573   -0.654191888335789  -0.0930569808327682     1.09913122382576 
98 1    0.653532849013573    0.164279579228719    0.826895779406073   -0.169805245687047  -0.0956613089201587     0.50062638253337 
99 1    0.810250945188727 -0.00123184319988923    0.849523194761446   -0.141219014030201   -0.299557900018301   -0.239925772409373 
100 1    0.833016754331425    0.153742895805067    0.686135575626054    0.209767845202883   -0.283242414750802   -0.551130374684744 
101 1    0.664145044024849    0.306604775861047    0.661368914299715    0.417931879468649    0.807273404012772   -0.269276883591145 
102 1    0.649032249236257    0.502012788331626    0.830151929312137    0.539330626491329   0.0508517240368498   -0.120091465280895 
103 1    0.813513722268908     0.31863954930418    0.824766530352804    0.227746100279073    0.682211629480098    0.874386574278139 
104 1    0.808059173933657     0.49387322148732    0.658526490197687    0.568570800179748  0.00222583421074352    0.576366566497927 
105 1    0.677634054563555    0.684875999678752    0.656791157440352   -0.431490055977722   -0.473732269707305   -0.091950903080932 
106 1    0.654372770158147    0.819047778841878    0.825298277873003    0.345330906530815    0.591865703847594    0.318395462994539 
107 1    0.825969445744704    0.659851439815156    0.827413250108066 -0.00193830089493852    -0.14900016493603   -0.143169683687863 
108 1    0.825844706700195    0.851704839736499    0.670070217966895    0.135324685328257   -0.448799942564571    0.197316252771381 
ITEM: TIMESTEP
200
ITEM: NUMBER OF ATOMS
108
ITEM: BOX BOUNDS pp pp pp
-9.3469925654471986e-02 1.2243469925654471e+01
-9.3469925654471986e-02 1.2243469925654461e+01
-9.3469925654471986e-02 1.2243469925654461e+01
ITEM: ATOMS id type xsu ysu zsu fx fy fz 
1 1   0.0123011372983228 -0.00214488533384838 -0.000327465419729833   -0.458278753041907   -0.187807345458256    0.253630139135971 
2 1   0.0108741739071547    0.159029779345929    0.176048913980139   -0.574101032823713   -0.231839423005378   -0.494726859214118 
3 1    0.185804055445033 -0.00766948817602042    0.152374235959996   -0.363021293034164  -0.0798879088289202  -0.0793673872733922 
4 1    0.157400418837483     0.16392265124307   -0.020058054567869   -0.151193057276884     1.04883617335676    0.982288729091886 