LAMMPS (17 Nov 2016)
units metal
dimension 3
boundary p p p
atom_style atomic
read_data structure.inp
  orthogonal box = (0 0 0) to (12.15 12.15 12.15)
  1 by 1 by 1 MPI processor grid
  reading atoms ...
  108 atoms
include potential.inp
pair_style eam/alloy
pair_coeff * * Al.lammps.eam Al
fix 1 all npt temp 600 600 1.0 iso 0.0 0.0 1.0
variable  dumptime equal 100
dump 1 all custom ${dumptime} dump.out id type xsu ysu zsu fx fy fz
dump 1 all custom 100 dump.out id type xsu ysu zsu fx fy fz
dump_modify 1 sort id format line "%d %d %20.15g %20.15g %20.15g %20.15g %20.15g %20.15g"
thermo_style custom step temp pe etotal pxx pyy pzz vol
thermo_modify format  float %20.15g
thermo 100
velocity all create 1200 57603 dist gaussian
run 10000
Neighbor list info ...
  1 neighbor list requests
  update every 1 steps, delay 10 steps, check yes
  max neighbors/atom: 2000, page size: 100000
  master list distance cutoff = 8.5
  ghost atom cutoff = 8.5
  binsize = 4.25 -> bins = 3 3 3
Memory usage per processor = 3.93753 Mbytes
Step Temp PotEng TotEng Pxx Pyy Pzz Volume 
       0                 1200    -362.880858320022    -346.283855702022    -5965.45407309413    -10463.8391911259      -9523.455517364          1793.613375 
     100     537.429754442821    -354.049310261665    -346.616207727099    -4265.57573935212    -4330.42247666243    -4832.58526053001     1850.66272037295 
     200     509.279154539302    -353.472345095632    -346.428588877981    -18326.9415814513    -12335.2554953336     -13429.137225343     1877.68329271144 
     300      560.18881230781    -354.106000521229    -346.358121200856     16703.2147477407     22196.7281155405     19774.9753901965     1786.47249332278 
     400     554.507228816724    -354.228863463404    -346.559565189761     203.854825231143     234.891011500707    -1204.58406174081      1833.6355227323 
     500     533.790780071757    -353.747135558093    -346.364363079497     -13826.483206156    -12691.7316202488    -9408.21373043631       1867.170340744 
     600     577.384166187886    -354.291044500484    -346.305339068974     13915.3482975106      9129.5508471895     11134.7540187981     1803.81791050266 
     700     554.872444913071    -353.987211353928    -346.312861836529     1298.32824137969     -142.46375394122     4649.97924021414      1830.3459057076 
     800     594.231509847678    -354.377194989689    -346.158476719156    -7142.61310989987    -12961.8885822833    -9622.81059624314     1854.72320599534 
     900     627.482596334618    -354.720679314574    -346.042070736145     8147.32216153366     2586.91650998694     1280.14102950058     1821.43151886619 
    1000     563.387898380824     -353.72936350282    -345.937238149173     1506.02808428452    -1926.45692852707     683.689658043236     1834.53341101442 
    1100     591.058822668277    -353.961587306155    -345.786749950141    -2209.40737211751    -4467.94664153994    -3836.27749427354     1845.18715149186 
    1200     548.950076696964     -353.23644366791    -345.644005451168     999.508945258937     3210.99522943273     3193.26697061968     1830.27991240942 
    1300      633.46664694936    -354.249760566176    -345.488387567981    -721.952582526882     3283.80206693196     194.388419600596     1832.28788225009 
    1400     602.236449490298    -353.661100320445    -345.331667046408    -2753.78554221811    -4013.73866462275    -8879.72607961369     1853.24268546882 
    1500     653.633534355112    -354.253049460889    -345.212751560135     322.467171313631    -466.919434660915    -1584.76227327295     1835.19387375459 
    1600     633.462139477062    -353.821605492484    -345.060294836397     6202.27292281578      5964.5523686163      2172.2801961437     1829.31160541904 
    1700      606.26842678972    -353.255837659915    -344.870638771048    -7771.75622436475    -6370.87579165508    -14278.9505238801     1866.69367095437 
    1800     598.783696595067    -353.062879786916    -344.781200970246     4166.07647818153     6242.47587551002     608.456996634321     1834.72696250292 
    1900     636.604579682151    -353.450595523884    -344.645822294205      7735.6682633382     8532.48978098151    -591.266698499852     1828.33979016178 
    2000     601.668792329127    -352.834978095883     -344.51339599467    -5924.56460727944    -5134.01353229024    -11325.5306596449     1863.08339569099 
    2100     616.420054264389    -352.981928054435    -344.456323675757     2768.67753534229     1966.50509505193     1791.74652946144     1842.07819252643 
    2200     631.150937224499    -353.096649426024    -344.367304628134     415.430985838932     5147.44503035845     2808.98710187422     1834.70086997396 
    2300     664.715123631168    -353.518897332797    -344.325331793521    -6460.32967339846    -2522.17569556076    -4949.59591420817     1852.63395814131 
    2400     601.469807659279    -352.612164776024     -344.29333479905     2184.52228792646     3432.61187363468     1520.90133220239     1845.40979433796 
    2500     619.530825149586    -352.837750897681    -344.269121958565    -262.392245625637     315.680877393572    -1586.90665095162     1846.43352265578 
    2600      640.64171034828    -353.121128623759    -344.260518503884     864.781974071095    -2190.74137142565    -255.678440886279     1845.21147342192 
    2700     638.527751769053    -353.093310377562    -344.261938071082     1828.56871257448     4173.19930487858     1384.01925890611     1840.56514994844 
    2800     715.456053258795    -354.166436324464     -344.27108133363    -5627.05841078345    -7359.54613169738    -11589.4311014031     1853.86067733214 
    2900      565.06608394869    -352.104639279847    -344.289303217647     3122.85173133208     5952.43317155086     6428.68270874726     1838.90896041634 
    3000     636.534469253804    -353.118898962937     -344.31509541906    -1853.00836149911    -3813.71954177748    -1546.84744229048     1848.52446480512 
    3100     615.057298348257    -352.845837156083    -344.339080830328    -1089.11049965398    -2820.77938825628      562.85595629316     1850.51025100977 
    3200     619.327511155122    -352.940592240174    -344.374775303473     5645.49209263174     1797.80064597357     5335.24288760912     1837.96868977588 
    3300     678.712945598421    -353.793949565074    -344.406782452601    -4231.36231596242    -2984.84462154095    -5653.92765745644     1850.95020030588 
    3400     598.671634199334    -352.723999049242    -344.443870149135    -2159.54980353424     4940.48522969447    -31.0479177757636     1848.17404907229 
    3500     566.036730646349    -352.314997019424    -344.486236102406     3950.95021293302     5830.94910873269     2119.53053655806     1837.33351858433 
    3600     573.384201394667     -352.49189886813    -344.561516291741    -1768.74991254756     3854.75704009382     1516.68992022479     1849.86721559923 
    3700     567.963573096527    -352.424667196438    -344.569256438429    -3498.33549484392    -11247.8444871101    -6305.31956019718     1867.80497153121 
    3800     756.228431637525     -355.07581826545    -344.616547215705      529.64114100112     2244.60213433411     4591.10026962858      1825.9028768697 
    3900     654.633635438272     -353.75293031668    -344.698800182347    -1627.53893572783     2502.69781862457     3324.74809402908     1837.00117562309 
    4000     601.878413965086    -352.990435914676    -344.665954571096     -10883.039938364    -7211.11408877913    -10320.7032618421     1869.95030101859 
    4100     639.009150536535    -353.575223792292    -344.737193338641     4723.89566799791     7712.21084736005     5755.41445753525     1826.33403042853 
    4200     585.113449890827     -352.94043279907    -344.847824916015     4714.66796064095     2969.57517600335     4448.94804190457     1834.94943658576 
    4300       584.7696883665    -352.879818948488    -344.791965574533    -11401.3890454819    -7588.42760893167    -8847.72814439191     1870.82048644528 
    4400     607.972497243944    -353.297162728159    -344.888395121134     6547.40638843724     2578.20962966651     8921.32853705307     1829.19424278409 
    4500     645.482042189632    -353.853852810402     -344.92629685699     2932.19761528288     7871.47926279419     5282.21054730201      1824.8671179309 
    4600     617.396279098669    -353.493510907889    -344.954404524102    -13400.1358387964    -13585.9446274083    -9894.47304935752     1870.96007560737 
    4700     602.059901262164    -353.441117021851    -345.114125557317     1525.12188125682     4555.15878104741     10023.1309780055     1827.33376164889 
    4800     630.260960736963    -353.877381041804    -345.160345362325     3519.16558192319     8311.30402836921      4959.9080554946     1822.97266321465 
    4900     538.911661468523    -352.592222420481    -345.138623873594     -10407.325790972    -12768.6048222403    -6591.75654206841     1873.23393262098 
    5000     635.583588216877    -354.126997914968    -345.336345850307    -796.105529833675      2244.3537132718      2788.6217336419      1832.1614290479 
    5100     680.404275348013    -354.756282377197    -345.345722761156     9358.19432598933     3853.17928606381     6616.62433567668      1814.6859783272 
    5200     576.412745757158    -353.339803684908    -345.367533809592    -8781.38164025032    -12923.0134411944    -7242.46718454551      1869.7373601911 
    5300     596.225419021238    -353.814482832433    -345.568187132088     856.812712029404     2465.31394866211    -1418.22001232318     1837.09449851937 
    5400     574.299921823546    -353.494474391169    -345.551426636151     9722.15515088703     11389.7530945151     9254.55196324641     1815.44894108181 
    5500     589.315469819239    -353.756517101749    -345.605791772234    -12190.0947507314    -8878.25160647149    -9937.25848404979     1863.97105684699 
    5600      570.55209436664    -353.652770919963    -345.761558750039      3473.4670561309     157.720670956608     3505.08218351312     1833.11470503448 
    5700     645.613389781279    -354.741521469034    -345.812148868688     5475.87748502914     2989.96526546807     7691.24384096898     1818.67196446097 
    5800     590.723611451961    -354.062566495609     -345.89236539079    -9417.63073699512    -10948.2378282954     -8178.8630569343     1856.75879656835 
    5900     524.827474744954    -353.273115456175    -346.014312979224     4176.12960395511     6339.65996654917     2280.86879756336     1832.21379568411 
    6000      590.87132801547    -354.285550998417    -346.113306850106     3599.26511931484     4749.67427929111    -395.410443364182     1825.83154953685 
    6100     593.293095924162    -354.439083804767    -346.233344582854    -4917.77201189496    -5835.65468810912     -4898.3026039151     1845.70322207245 
    6200     581.738452668358    -354.405964997947    -346.360036146341    -7081.77752424066     988.944311025726    -3737.06491621819     1841.54780567972 
    6300     611.739139587337    -354.956330615771    -346.495467198051     1152.06627617519     4322.23969448538     1401.06317046332     1824.27092844838 
    6400     511.943251369233    -353.743584514725    -346.662981612023    -658.977841546202     2223.60314277886     2571.60756619976     1838.84994864344 
    6500     569.693503031859     -354.67979958947    -346.800462455072    -12227.4585063653    -7390.40434643082    -9812.23478018883     1853.86903162566 
    6600     584.607969378124    -355.066158489837     -346.98054182461     3857.89384762731     5234.68084926024     7636.97226561733     1811.86119457903 
    6700     539.135121088607    -354.627306986595    -347.170617806459     955.393475076386     1608.36071485379     3720.23560972093     1822.28464049241 
    6800      533.30005093846    -354.641532183686    -347.265546899015    -12221.9994845266    -5594.10862741903     -10538.100566395     1852.64124797047 
    6900     599.547120826017    -355.750835894887    -347.458598283251     2366.09357338731     3961.26485705794     2423.16002886969      1813.1885341497 
    7000      499.51688435217    -354.536187151313    -347.627451286873     2936.39400751656     8161.21203948043     5797.87902862652     1816.84444684686 
    7100     496.670610641604    -354.565651258079     -347.69628173716     -11745.100134461    -5148.50843262477    -9649.18456480154      1849.6841188971 
    7200     537.101077777761    -355.275146588206    -347.846589926532     5850.73067716081     5351.70856420731     4725.02432209951     1811.45469593147 
    7300     564.023129086421    -355.747724176906    -347.946813051856     24.8208697564773     1725.35528976668     1051.26434912574     1818.54264675809 
    7400     510.434079244824    -355.045194959682    -347.985465168396    -7451.81638873196    -6793.25696450882    -6014.71521060993     1842.02077259295 
    7500     558.484844794238    -355.794070030079    -348.069758004109     -1260.7009193852     2842.70755011429     815.229346196071     1817.29552267594 
    7600     599.221404535402    -356.389226522875    -348.101493839678    -907.594049557971     970.899623242644    -2013.46218842538     1816.49203675652 
    7700     473.470976831177     -354.64919252874    -348.100693327062    -3377.10616685247    -2220.07930855401    -3196.74302493885     1834.44287475703 
    7800     499.264791798747    -355.003298638013    -348.098049424214      1682.1289758022     3932.91174285796     -1061.7112397914     1823.13808474056 
    7900      492.88818043318    -354.875295133971    -348.058239783112    -114.330453015345     5681.22897707915     1219.27083145045     1820.24922546717 
    8000     501.194250685272     -354.93192790309    -347.999992660799    -3273.34558338555     3122.71405451256    -4938.58561323959      1829.4020751118 
    8100     561.096040527109    -355.679516899329    -347.919089854681    -1180.51725775206     1046.58497766833    -1253.36782844032     1821.82994412635 
    8200      530.84094199506     -355.14723516736    -347.805261413999      2121.0916789371     5031.04946917694    -185.085159857309     1820.20125544948 
    8300     527.332471960149    -354.938704178037    -347.645255496637    -1588.89576933027     70.5493742879314    -5867.11918011623     1833.54526160152 
    8400     546.551565267208    -355.016745300627    -347.457480500951     4683.95229605421     4775.17685823319    -952.243520019146     1819.94810953281 
    8500      586.15301559676    -355.333686379835    -347.226700434495     258.759033657487    -2598.45280884513    -1367.79848484567     1825.46428962065 
    8600     554.207584343316    -354.634658931568     -346.96950499135     -1618.8392961089     813.884809020914    -4123.98781284378     1832.34874482687 
    8700     599.896003432165    -355.020023242947    -346.722960293371    -3870.55913000914     756.338091571494    -2607.37096146512     1829.14641274572 
    8800     574.252605861738    -354.440670288318    -346.498276952584     385.123555037185     4459.13672886055     2396.17436396645     1827.41379317358 
    8900     503.535193777611    -353.277819155569    -346.313506714417    -3686.59791747316    -360.889683532381    -803.341235928751     1846.65013559562 
    9000     549.528817383645    -353.785796864686    -346.185354180701      12.022017247321     1907.27489542382     2580.81506416181     1834.96511397126 
    9100      662.06457973302    -355.198046157601    -346.041139855006     1374.02285212798     -91.627429938826     2396.70342081213     1824.46096442349 
    9200     625.127961989893    -354.595876132169     -345.94983411406    -4686.48871955102    -6587.74731582858    -4627.41106814306     1842.46868328551 
    9300     656.688682694126    -354.961077182235    -345.878524027331    -5823.19485585288    -3403.50924757966    -3180.17085774034     1838.31736373857 
    9400     538.787733158138    -353.272608046414    -345.820723531604     5651.16275818967     5769.11938617274     3247.33340776391     1830.44932688372 
    9500     576.721080095546    -353.723470477722    -345.746936080888    -6262.80032798355    -3685.83138451151    -2179.68774296616     1848.12870281724 
    9600     545.936339730155    -353.245647517317    -345.694891800848     6659.68916039226     945.491801698894      6611.0766245266     1832.30905370977 
    9700     580.794426561281    -353.682954834219    -345.650082652421     2730.51794333062    -77.3958783613739      933.93951261683     1839.19200000932 
    9800     575.497992025968    -353.534483194318    -345.574865127394    -830.475140672666    -1429.91423828898    -6104.07975436713     1849.89255029399 
    9900     650.830149274192    -354.513900911681    -345.512376168867    -1607.91843859095     1959.96779354261    -754.436589624204     1834.92667196554 
   10000      608.85965592887      -353.8761161599    -345.455078407029     -881.19350404061     2648.61407151151    -2410.45502658773     1839.60833574007 
Loop time of 2.68913 on 1 procs for 10000 steps with 108 atoms

Performance: 321.294 ns/day, 0.075 hours/ns, 3718.680 timesteps/s
99.9% CPU use with 1 MPI tasks x no OpenMP threads

MPI task timing breakdown:
Section |  min time  |  avg time  |  max time  |%varavg| %total
---------------------------------------------------------------
Pair    | 2.5003     | 2.5003     | 2.5003     |   0.0 | 92.98
Neigh   | 0          | 0          | 0          |   0.0 |  0.00
Comm    | 0.071133   | 0.071133   | 0.071133   |   0.0 |  2.65
Output  | 0.034369   | 0.034369   | 0.034369   |   0.0 |  1.28
Modify  | 0.06426    | 0.06426    | 0.06426    |   0.0 |  2.39
Other   |            | 0.01901    |            |       |  0.71

Nlocal:    108 ave 108 max 108 min
Histogram: 1 0 0 0 0 0 0 0 0 0
Nghost:    1580 ave 1580 max 1580 min
Histogram: 1 0 0 0 0 0 0 0 0 0
Neighs:    7560 ave 7560 max 7560 min
Histogram: 1 0 0 0 0 0 0 0 0 0

Total # of neighbors = 7560
Ave neighs/atom = 70
Neighbor list builds = 0
Dangerous builds = 0
Total wall time: 0:00:02
