no title                                                                
Freq      RB3LYP                                                      6-31+G(d)           
Number of atoms                            I               12
Info1-9                                    I   N=           9
          21          20        1002           0           0         100
           6          18        -502
Full Title                                 C   N=           1
no title    
Route                                      C   N=           3
#n B3LYP/6-31+G(d) opt freq(noraman)
Charge                                     I                0
Multiplicity                               I                1
Number of electrons                        I               42
Number of alpha electrons                  I               21
Number of beta electrons                   I               21
Number of basis functions                  I              126
Number of independent functions            I              126
Number of point charges in /Mol/           I                0
Number of translation vectors              I                0
Atomic numbers                             I   N=          12
           6           6           6           6           6           6
           1           1           1           1           1           1
Nuclear charges                            R   N=          12
  6.00000000E+00  6.00000000E+00  6.00000000E+00  6.00000000E+00  6.00000000E+00
  6.00000000E+00  1.00000000E+00  1.00000000E+00  1.00000000E+00  1.00000000E+00
  1.00000000E+00  1.00000000E+00
Current cartesian coordinates              R   N=          36
  0.00000000E+00  2.64256402E+00 -4.23972506E-07  0.00000000E+00  1.32128139E+00
  2.28852770E+00 -1.61810303E-16 -1.32128139E+00  2.28852770E+00 -3.23620757E-16
 -2.64256402E+00 -4.23972505E-07  4.93038066E-32 -1.32128219E+00 -2.28852734E+00
  1.61810401E-16  1.32128219E+00 -2.28852734E+00  0.00000000E+00  4.69728233E+00
  1.00549575E-06 -9.86076132E-32  2.34864314E+00  4.06796516E+00 -2.87625830E-16
 -2.34864314E+00  4.06796516E+00 -5.75251177E-16 -4.69728233E+00  1.00549575E-06
  9.86076132E-32 -2.34864239E+00 -4.06796575E+00  2.87625738E-16  2.34864239E+00
 -4.06796575E+00
Number of symbols in /Mol/                 I                0
Force Field                                I                0
Atom Types                                 C   N=          12
                                                            
                                                            
                        
Int Atom Types                             I   N=          12
           0           0           0           0           0           0
           0           0           0           0           0           0
MM charges                                 R   N=          12
  0.00000000E+00  0.00000000E+00  0.00000000E+00  0.00000000E+00  0.00000000E+00
  0.00000000E+00  0.00000000E+00  0.00000000E+00  0.00000000E+00  0.00000000E+00
  0.00000000E+00  0.00000000E+00
Integer atomic weights                     I   N=          12
          12          12          12          12          12          12
           1           1           1           1           1           1
Real atomic weights                        R   N=          12
  1.20000000E+01  1.20000000E+01  1.20000000E+01  1.20000000E+01  1.20000000E+01
  1.20000000E+01  1.00782504E+00  1.00782504E+00  1.00782504E+00  1.00782504E+00
  1.00782504E+00  1.00782504E+00
Atom fragment info                         I   N=          12
           0           0           0           0           0           0
           0           0           0           0           0           0
Atom residue num                           I   N=          12
           0           0           0           0           0           0
           0           0           0           0           0           0
Nuclear spins                              I   N=          12
           0           0           0           0           0           0
           1           1           1           1           1           1
Nuclear ZEff                               R   N=          12
 -3.60000000E+00 -3.60000000E+00 -3.60000000E+00 -3.60000000E+00 -3.60000000E+00
 -3.60000000E+00 -1.00000000E+00 -1.00000000E+00 -1.00000000E+00 -1.00000000E+00
 -1.00000000E+00 -1.00000000E+00
Nuclear ZNuc                               R   N=          12
  6.00000000E+00  6.00000000E+00  6.00000000E+00  6.00000000E+00  6.00000000E+00
  6.00000000E+00  1.00000000E+00  1.00000000E+00  1.00000000E+00  1.00000000E+00
  1.00000000E+00  1.00000000E+00
Nuclear QMom                               R   N=          12
  0.00000000E+00  0.00000000E+00  0.00000000E+00  0.00000000E+00  0.00000000E+00
  0.00000000E+00  0.00000000E+00  0.00000000E+00  0.00000000E+00  0.00000000E+00
  0.00000000E+00  0.00000000E+00
Nuclear GFac                               R   N=          12
  0.00000000E+00  0.00000000E+00  0.00000000E+00  0.00000000E+00  0.00000000E+00
  0.00000000E+00  2.79284600E+00  2.79284600E+00  2.79284600E+00  2.79284600E+00
  2.79284600E+00  2.79284600E+00
MicOpt                                     I   N=          12
          -1          -1          -1          -1          -1          -1
          -1          -1          -1          -1          -1          -1
Number of residues                         I                0
Number of secondary structures             I                0
Redundant internal dimensions              I   N=           4
          54          12          18          24
Redundant internal coordinate indices      I   N=         216
           1           2           0           0           1           6
           0           0           1           7           0           0
           2           3           0           0           2           8
           0           0           3           4           0           0
           3           9           0           0           4           5
           0           0           4          10           0           0
           5           6           0           0           5          11
           0           0           6          12           0           0
           2           1           6           0           2           1
           7           0           6           1           7           0
           1           2           3           0           1           2
           8           0           3           2           8           0
           2           3           4           0           2           3
           9           0           4           3           9           0
           3           4           5           0           3           4
          10           0           5           4          10           0
           4           5           6           0           4           5
          11           0           6           5          11           0
           1           6           5           0           1           6
          12           0           5           6          12           0
           6           1           2           3           6           1
           2           8           7           1           2           3
           7           1           2           8           2           1
           6           5           2           1           6          12
           7           1           6           5           7           1
           6          12           1           2           3           4
           1           2           3           9           8           2
           3           4           8           2           3           9
           2           3           4           5           2           3
           4          10           9           3           4           5
           9           3           4          10           3           4
           5           6           3           4           5          11
          10           4           5           6          10           4
           5          11           4           5           6           1
           4           5           6          12          11           5
           6           1          11           5           6          12
Redundant internal coordinates             R   N=          54
  2.64256481E+00  2.64256336E+00  2.05471831E+00  2.64256278E+00  2.05471892E+00
  2.64256481E+00  2.05471892E+00  2.64256336E+00  2.05471831E+00  2.64256439E+00
  2.05471897E+00  2.05471897E+00  2.09439494E+00  2.09439451E+00  2.09439586E+00
  2.09439520E+00  2.09439372E+00  2.09439639E+00  2.09439520E+00  2.09439639E+00
  2.09439372E+00  2.09439494E+00  2.09439451E+00  2.09439586E+00  2.09439517E+00
  2.09439464E+00  2.09439550E+00  2.09439517E+00  2.09439464E+00  2.09439550E+00
  0.00000000E+00  3.14159265E+00  3.14159265E+00  0.00000000E+00  0.00000000E+00
  3.14159265E+00  3.14159265E+00  0.00000000E+00  0.00000000E+00  3.14159265E+00
  3.14159265E+00  0.00000000E+00  0.00000000E+00  3.14159265E+00  3.14159265E+00
  0.00000000E+00  0.00000000E+00  3.14159265E+00  3.14159265E+00  0.00000000E+00
  0.00000000E+00  3.14159265E+00  3.14159265E+00  0.00000000E+00
ZRed-IntVec                                I   N=          54
           0           0           0           0           0           0
           0           0           0           0           0           0
           0           0           0           0           0           0
           0           0           0           0           0           0
           0           0           0           0           0           0
           0           0           0           0           0           0
           0           0           0           0           0           0
           0           0           0           0           0           0
           0           0           0           0           0           0
ZRed-FPVec                                 R   N=          54
  0.00000000E+00  0.00000000E+00  0.00000000E+00  0.00000000E+00  0.00000000E+00
  0.00000000E+00  0.00000000E+00  0.00000000E+00  0.00000000E+00  0.00000000E+00
  0.00000000E+00  0.00000000E+00  0.00000000E+00  0.00000000E+00  0.00000000E+00
  0.00000000E+00  0.00000000E+00  0.00000000E+00  0.00000000E+00  0.00000000E+00
  0.00000000E+00  0.00000000E+00  0.00000000E+00  0.00000000E+00  0.00000000E+00
  0.00000000E+00  0.00000000E+00  0.00000000E+00  0.00000000E+00  0.00000000E+00
  0.00000000E+00  0.00000000E+00  0.00000000E+00  0.00000000E+00  0.00000000E+00
  0.00000000E+00  0.00000000E+00  0.00000000E+00  0.00000000E+00  0.00000000E+00
  0.00000000E+00  0.00000000E+00  0.00000000E+00  0.00000000E+00  0.00000000E+00
  0.00000000E+00  0.00000000E+00  0.00000000E+00  0.00000000E+00  0.00000000E+00
  0.00000000E+00  0.00000000E+00  0.00000000E+00  0.00000000E+00
ZRed-Constraint1                           R   N=          54
  2.64256481E+00  2.64256336E+00  2.05471831E+00  2.64256279E+00  2.05471892E+00
  2.64256481E+00  2.05471892E+00  2.64256336E+00  2.05471831E+00  2.64256439E+00
  2.05471897E+00  2.05471897E+00  2.09439494E+00  2.09439451E+00  2.09439586E+00
  2.09439520E+00  2.09439372E+00  2.09439639E+00  2.09439520E+00  2.09439639E+00
  2.09439372E+00  2.09439494E+00  2.09439451E+00  2.09439586E+00  2.09439517E+00
  2.09439464E+00  2.09439550E+00  2.09439517E+00  2.09439464E+00  2.09439550E+00
  0.00000000E+00  3.14159265E+00  3.14159265E+00  0.00000000E+00  0.00000000E+00
  3.14159265E+00  3.14159265E+00  0.00000000E+00  0.00000000E+00  3.14159265E+00
  3.14159265E+00  0.00000000E+00  0.00000000E+00  3.14159265E+00  3.14159265E+00
  0.00000000E+00  0.00000000E+00  3.14159265E+00  3.14159265E+00  0.00000000E+00
  0.00000000E+00  3.14159265E+00  3.14159265E+00  0.00000000E+00
ZRed-Constraint2                           R   N=          54
  2.66089693E+00  2.66088057E+00  1.93211268E+00  2.66088556E+00  1.93210738E+00
  2.66089693E+00  1.93210738E+00  2.66088057E+00  1.93211268E+00  2.66088556E+00
  1.93210738E+00  1.93210738E+00  2.09439649E+00  2.09439263E+00  2.09439619E+00
  2.09439263E+00  2.09440163E+00  2.09439104E+00  2.09439263E+00  2.09439104E+00
  2.09440163E+00  2.09439649E+00  2.09439263E+00  2.09439619E+00  2.09439619E+00
  2.09439808E+00  2.09439104E+00  2.09439619E+00  2.09439808E+00  2.09439104E+00
  0.00000000E+00  3.14159265E+00  3.14159265E+00  0.00000000E+00  0.00000000E+00
  3.14159265E+00  3.14159265E+00  0.00000000E+00  0.00000000E+00  3.14159265E+00
  3.14159265E+00  0.00000000E+00  0.00000000E+00  3.14159265E+00  3.14159265E+00
  0.00000000E+00  0.00000000E+00  3.14159265E+00  3.14159265E+00  0.00000000E+00
  0.00000000E+00  3.14159265E+00  3.14159265E+00  0.00000000E+00
SymInf integers                            I   N=          26
           2           4           1           1           1          -1
          -1           1          -1           1           1           1
          -1           1           0           0           0           0
           0           0           0           0           0           0
           0           0
RotTr to input orientation                 R   N=          12
  1.83697020E-16  6.12323400E-17  1.00000000E+00 -1.00000000E+00 -4.24352990E-10
  1.83697020E-16  4.24352990E-10 -1.00000000E+00  6.12323400E-17  1.31335966E+00
  2.27480827E+00 -2.39724629E-16
Number of contracted shells                I               42
Number of primitive shells                 I               96
Pure/Cartesian d shells                    I                1
Pure/Cartesian f shells                    I                0
Highest angular momentum                   I                2
Largest degree of contraction              I                6
Shell types                                I   N=          42
           0          -1          -1          -1           2           0
          -1          -1          -1           2           0          -1
          -1          -1           2           0          -1          -1
          -1           2           0          -1          -1          -1
           2           0          -1          -1          -1           2
           0           0           0           0           0           0
           0           0           0           0           0           0
Number of primitives per shell             I   N=          42
           6           3           1           1           1           6
           3           1           1           1           6           3
           1           1           1           6           3           1
           1           1           6           3           1           1
           1           6           3           1           1           1
           3           1           3           1           3           1
           3           1           3           1           3           1
Shell to atom map                          I   N=          42
           1           1           1           1           1           2
           2           2           2           2           3           3
           3           3           3           4           4           4
           4           4           5           5           5           5
           5           6           6           6           6           6
           7           7           8           8           9           9
          10          10          11          11          12          12
Primitive exponents                        R   N=          96
  3.04752488E+03  4.57369518E+02  1.03948685E+02  2.92101553E+01  9.28666296E+00
  3.16392696E+00  7.86827235E+00  1.88128854E+00  5.44249258E-01  1.68714478E-01
  4.38000000E-02  8.00000000E-01  3.04752488E+03  4.57369518E+02  1.03948685E+02
  2.92101553E+01  9.28666296E+00  3.16392696E+00  7.86827235E+00  1.88128854E+00
  5.44249258E-01  1.68714478E-01  4.38000000E-02  8.00000000E-01  3.04752488E+03
  4.57369518E+02  1.03948685E+02  2.92101553E+01  9.28666296E+00  3.16392696E+00
  7.86827235E+00  1.88128854E+00  5.44249258E-01  1.68714478E-01  4.38000000E-02
  8.00000000E-01  3.04752488E+03  4.57369518E+02  1.03948685E+02  2.92101553E+01
  9.28666296E+00  3.16392696E+00  7.86827235E+00  1.88128854E+00  5.44249258E-01
  1.68714478E-01  4.38000000E-02  8.00000000E-01  3.04752488E+03  4.57369518E+02
  1.03948685E+02  2.92101553E+01  9.28666296E+00  3.16392696E+00  7.86827235E+00
  1.88128854E+00  5.44249258E-01  1.68714478E-01  4.38000000E-02  8.00000000E-01
  3.04752488E+03  4.57369518E+02  1.03948685E+02  2.92101553E+01  9.28666296E+00
  3.16392696E+00  7.86827235E+00  1.88128854E+00  5.44249258E-01  1.68714478E-01
  4.38000000E-02  8.00000000E-01  1.87311370E+01  2.82539436E+00  6.40121692E-01
  1.61277759E-01  1.87311370E+01  2.82539436E+00  6.40121692E-01  1.61277759E-01
  1.87311370E+01  2.82539436E+00  6.40121692E-01  1.61277759E-01  1.87311370E+01
  2.82539436E+00  6.40121692E-01  1.61277759E-01  1.87311370E+01  2.82539436E+00
  6.40121692E-01  1.61277759E-01  1.87311370E+01  2.82539436E+00  6.40121692E-01
  1.61277759E-01
Contraction coefficients                   R   N=          96
  1.83473713E-03  1.40373228E-02  6.88426223E-02  2.32184443E-01  4.67941348E-01
  3.62311985E-01 -1.19332420E-01 -1.60854152E-01  1.14345644E+00  1.00000000E+00
  1.00000000E+00  1.00000000E+00  1.83473713E-03  1.40373228E-02  6.88426223E-02
  2.32184443E-01  4.67941348E-01  3.62311985E-01 -1.19332420E-01 -1.60854152E-01
  1.14345644E+00  1.00000000E+00  1.00000000E+00  1.00000000E+00  1.83473713E-03
  1.40373228E-02  6.88426223E-02  2.32184443E-01  4.67941348E-01  3.62311985E-01
 -1.19332420E-01 -1.60854152E-01  1.14345644E+00  1.00000000E+00  1.00000000E+00
  1.00000000E+00  1.83473713E-03  1.40373228E-02  6.88426223E-02  2.32184443E-01
  4.67941348E-01  3.62311985E-01 -1.19332420E-01 -1.60854152E-01  1.14345644E+00
  1.00000000E+00  1.00000000E+00  1.00000000E+00  1.83473713E-03  1.40373228E-02
  6.88426223E-02  2.32184443E-01  4.67941348E-01  3.62311985E-01 -1.19332420E-01
 -1.60854152E-01  1.14345644E+00  1.00000000E+00  1.00000000E+00  1.00000000E+00
  1.83473713E-03  1.40373228E-02  6.88426223E-02  2.32184443E-01  4.67941348E-01
  3.62311985E-01 -1.19332420E-01 -1.60854152E-01  1.14345644E+00  1.00000000E+00
  1.00000000E+00  1.00000000E+00  3.34946043E-02  2.34726953E-01  8.13757326E-01
  1.00000000E+00  3.34946043E-02  2.34726953E-01  8.13757326E-01  1.00000000E+00
  3.34946043E-02  2.34726953E-01  8.13757326E-01  1.00000000E+00  3.34946043E-02
  2.34726953E-01  8.13757326E-01  1.00000000E+00  3.34946043E-02  2.34726953E-01
  8.13757326E-01  1.00000000E+00  3.34946043E-02  2.34726953E-01  8.13757326E-01
  1.00000000E+00
P(S=P) Contraction coefficients            R   N=          96
  0.00000000E+00  0.00000000E+00  0.00000000E+00  0.00000000E+00  0.00000000E+00
  0.00000000E+00  6.89990666E-02  3.16423961E-01  7.44308291E-01  1.00000000E+00
  1.00000000E+00  0.00000000E+00  0.00000000E+00  0.00000000E+00  0.00000000E+00
  0.00000000E+00  0.00000000E+00  0.00000000E+00  6.89990666E-02  3.16423961E-01
  7.44308291E-01  1.00000000E+00  1.00000000E+00  0.00000000E+00  0.00000000E+00
  0.00000000E+00  0.00000000E+00  0.00000000E+00  0.00000000E+00  0.00000000E+00
  6.89990666E-02  3.16423961E-01  7.44308291E-01  1.00000000E+00  1.00000000E+00
  0.00000000E+00  0.00000000E+00  0.00000000E+00  0.00000000E+00  0.00000000E+00
  0.00000000E+00  0.00000000E+00  6.89990666E-02  3.16423961E-01  7.44308291E-01
  1.00000000E+00  1.00000000E+00  0.00000000E+00  0.00000000E+00  0.00000000E+00
  0.00000000E+00  0.00000000E+00  0.00000000E+00  0.00000000E+00  6.89990666E-02
  3.16423961E-01  7.44308291E-01  1.00000000E+00  1.00000000E+00  0.00000000E+00
  0.00000000E+00  0.00000000E+00  0.00000000E+00  0.00000000E+00  0.00000000E+00
  0.00000000E+00  6.89990666E-02  3.16423961E-01  7.44308291E-01  1.00000000E+00
  1.00000000E+00  0.00000000E+00  0.00000000E+00  0.00000000E+00  0.00000000E+00
  0.00000000E+00  0.00000000E+00  0.00000000E+00  0.00000000E+00  0.00000000E+00
  0.00000000E+00  0.00000000E+00  0.00000000E+00  0.00000000E+00  0.00000000E+00
  0.00000000E+00  0.00000000E+00  0.00000000E+00  0.00000000E+00  0.00000000E+00
  0.00000000E+00  0.00000000E+00  0.00000000E+00  0.00000000E+00  0.00000000E+00
  0.00000000E+00
Coordinates of each shell                  R   N=         126
  0.00000000E+00  2.64256402E+00 -4.23972506E-07  0.00000000E+00  2.64256402E+00
 -4.23972506E-07  0.00000000E+00  2.64256402E+00 -4.23972506E-07  0.00000000E+00
  2.64256402E+00 -4.23972506E-07  0.00000000E+00  2.64256402E+00 -4.23972506E-07
  0.00000000E+00  1.32128139E+00  2.28852770E+00  0.00000000E+00  1.32128139E+00
  2.28852770E+00  0.00000000E+00  1.32128139E+00  2.28852770E+00  0.00000000E+00
  1.32128139E+00  2.28852770E+00  0.00000000E+00  1.32128139E+00  2.28852770E+00
 -1.61810303E-16 -1.32128139E+00  2.28852770E+00 -1.61810303E-16 -1.32128139E+00
  2.28852770E+00 -1.61810303E-16 -1.32128139E+00  2.28852770E+00 -1.61810303E-16
 -1.32128139E+00  2.28852770E+00 -1.61810303E-16 -1.32128139E+00  2.28852770E+00
 -3.23620757E-16 -2.64256402E+00 -4.23972505E-07 -3.23620757E-16 -2.64256402E+00
 -4.23972505E-07 -3.23620757E-16 -2.64256402E+00 -4.23972505E-07 -3.23620757E-16
 -2.64256402E+00 -4.23972505E-07 -3.23620757E-16 -2.64256402E+00 -4.23972505E-07
  4.93038066E-32 -1.32128219E+00 -2.28852734E+00  4.93038066E-32 -1.32128219E+00
 -2.28852734E+00  4.93038066E-32 -1.32128219E+00 -2.28852734E+00  4.93038066E-32
 -1.32128219E+00 -2.28852734E+00  4.93038066E-32 -1.32128219E+00 -2.28852734E+00
  1.61810401E-16  1.32128219E+00 -2.28852734E+00  1.61810401E-16  1.32128219E+00
 -2.28852734E+00  1.61810401E-16  1.32128219E+00 -2.28852734E+00  1.61810401E-16
  1.32128219E+00 -2.28852734E+00  1.61810401E-16  1.32128219E+00 -2.28852734E+00
  0.00000000E+00  4.69728233E+00  1.00549575E-06  0.00000000E+00  4.69728233E+00
  1.00549575E-06 -9.86076132E-32  2.34864314E+00  4.06796516E+00 -9.86076132E-32
  2.34864314E+00  4.06796516E+00 -2.87625830E-16 -2.34864314E+00  4.06796516E+00
 -2.87625830E-16 -2.34864314E+00  4.06796516E+00 -5.75251177E-16 -4.69728233E+00
  1.00549575E-06 -5.75251177E-16 -4.69728233E+00  1.00549575E-06  9.86076132E-32
 -2.34864239E+00 -4.06796575E+00  9.86076132E-32 -2.34864239E+00 -4.06796575E+00
  2.87625738E-16  2.34864239E+00 -4.06796575E+00  2.87625738E-16  2.34864239E+00
 -4.06796575E+00
Num ILSW                                   I              100
ILSW                                       I   N=         100
           0           1           0           0           2           0
           0           0           0           0         402          -1
           5           0           0           0           2           0
           0           0           1           0           1           0
           1           0           0           0           0           0
           0           0      100000           0          -1           0
           0           0           0           0           0           0
           0           0           0           1           0           0
           0 -2000000000           1           0           0           0
           0           0           4          52           0           0
           0           0           5           0           0           0
           0           0           0           0           0           1
           0           0           0           0           0           0
           0           0           0           0           0           0
           0           0           0           0           0           0
           0           0           0           0           0           0
           0           0           0           0
Num RLSW                                   I               52
RLSW                                       R   N=          52
  8.00000000E-01  7.20000000E-01  1.00000000E+00  8.10000000E-01  2.00000000E-01
  0.00000000E+00  0.00000000E+00  1.00000000E+00  0.00000000E+00  0.00000000E+00
  0.00000000E+00  0.00000000E+00  1.00000000E+00  0.00000000E+00  0.00000000E+00
  0.00000000E+00  0.00000000E+00  1.00000000E+00  0.00000000E+00  0.00000000E+00
  0.00000000E+00  0.00000000E+00  1.00000000E+00  0.00000000E+00  0.00000000E+00
  0.00000000E+00  0.00000000E+00  1.00000000E+00  0.00000000E+00  0.00000000E+00
  0.00000000E+00  0.00000000E+00  1.00000000E+00  0.00000000E+00  0.00000000E+00
  0.00000000E+00  0.00000000E+00  0.00000000E+00  1.00000000E+00  1.00000000E+00
  0.00000000E+00  1.00000000E+00  0.00000000E+00  0.00000000E+00  0.00000000E+00
  0.00000000E+00  0.00000000E+00  0.00000000E+00  0.00000000E+00  0.00000000E+00
  0.00000000E+00  0.00000000E+00
MxBond                                     I                3
NBond                                      I   N=          12
           3           3           3           3           3           3
           1           1           1           1           1           1
IBond                                      I   N=          36
           2           6           7           1           3           8
           2           4           9           3           5          10
           4           6          11           1           5          12
           1           0           0           2           0           0
           3           0           0           4           0           0
           5           0           0           6           0           0
RBond                                      R   N=          36
  1.50000000E+00  1.50000000E+00  1.00000000E+00  1.50000000E+00  1.50000000E+00
  1.00000000E+00  1.50000000E+00  1.50000000E+00  1.00000000E+00  1.50000000E+00
  1.50000000E+00  1.00000000E+00  1.50000000E+00  1.50000000E+00  1.00000000E+00
  1.50000000E+00  1.50000000E+00  1.00000000E+00  1.00000000E+00  0.00000000E+00
  0.00000000E+00  1.00000000E+00  0.00000000E+00  0.00000000E+00  1.00000000E+00
  0.00000000E+00  0.00000000E+00  1.00000000E+00  0.00000000E+00  0.00000000E+00
  1.00000000E+00  0.00000000E+00  0.00000000E+00  1.00000000E+00  0.00000000E+00
  0.00000000E+00
Virial Ratio                               R      2.010288275103286E+00
SCF Energy                                 R     -2.322589202279454E+02
Total Energy                               R     -2.322589202279454E+02
RMS Force                                  R      6.924316936998828E-05
RMS Density                                R      3.336769177756514E-09
NImag                                      I                0
Job Status                                 I                1
Nuclear derivative order                   I                2
External E-field                           R   N=          35
  0.00000000E+00  0.00000000E+00  0.00000000E+00  0.00000000E+00  0.00000000E+00
  0.00000000E+00  0.00000000E+00  0.00000000E+00  0.00000000E+00  0.00000000E+00
  0.00000000E+00  0.00000000E+00  0.00000000E+00  0.00000000E+00  0.00000000E+00
  0.00000000E+00  0.00000000E+00  0.00000000E+00  0.00000000E+00  0.00000000E+00
  0.00000000E+00  0.00000000E+00  0.00000000E+00  0.00000000E+00  0.00000000E+00
  0.00000000E+00  0.00000000E+00  0.00000000E+00  0.00000000E+00  0.00000000E+00
  0.00000000E+00  0.00000000E+00  0.00000000E+00  0.00000000E+00  0.00000000E+00
IOpCl                                      I                0
IROHF                                      I                0
Alpha Orbital Energies                     R   N=         126
 -1.01986698E+01 -1.01984040E+01 -1.01984040E+01 -1.01978500E+01 -1.01978499E+01
 -1.01975856E+01 -8.56797152E-01 -7.49869963E-01 -7.49869816E-01 -6.06952582E-01
 -6.06952520E-01 -5.27445952E-01 -4.67657218E-01 -4.48551100E-01 -4.26641992E-01
 -4.26641635E-01 -3.69317455E-01 -3.49721295E-01 -3.49721126E-01 -2.57090984E-01
 -2.57090884E-01 -1.43862575E-02 -1.43859977E-02  8.91026588E-03  2.62058872E-02
  2.62059554E-02  4.59622906E-02  4.59624941E-02  6.68355771E-02  7.80511012E-02
  7.95718920E-02  9.22688020E-02  9.22690868E-02  9.97712840E-02  1.26835522E-01
  1.42743651E-01  1.42746624E-01  1.44833272E-01  1.44833377E-01  1.55219541E-01
  1.55221279E-01  1.95909217E-01  1.96828240E-01  1.96828717E-01  2.05140471E-01
  2.11677922E-01  2.11680643E-01  2.35171518E-01  2.43702426E-01  2.43702625E-01
  2.66339433E-01  2.79114620E-01  2.79116139E-01  3.24722171E-01  3.47779002E-01
  3.47779258E-01  3.49064348E-01  3.49064358E-01  5.65602955E-01  5.75390092E-01
  6.01367216E-01  6.20397167E-01  6.59114662E-01  7.17271701E-01  7.17271978E-01
  7.20882999E-01  7.20884319E-01  7.46664440E-01  7.46664687E-01  7.68656555E-01
  7.68657446E-01  8.03373036E-01  8.27943551E-01  8.95593158E-01  9.31096002E-01
  9.31096202E-01  9.64074502E-01  9.64074713E-01  9.75342076E-01  1.03179930E+00
  1.07391987E+00  1.07392059E+00  1.13623266E+00  1.13623303E+00  1.16988173E+00
  1.16988195E+00  1.25088100E+00  1.30895809E+00  1.39143506E+00  1.43447623E+00
  1.43447673E+00  1.47814259E+00  1.47814266E+00  1.50510458E+00  1.50510459E+00
  1.74921330E+00  1.81591957E+00  1.88331740E+00  1.90389174E+00  1.98685785E+00
  1.98685863E+00  2.10375157E+00  2.10375183E+00  2.15009526E+00  2.15009529E+00
  2.16170647E+00  2.16170684E+00  2.30099502E+00  2.30099533E+00  2.31994757E+00
  2.57143154E+00  2.57143179E+00  2.64274488E+00  2.70014087E+00  2.70014106E+00
  2.73088986E+00  2.73089034E+00  2.82555291E+00  3.01800291E+00  3.39513017E+00
  4.22138928E+00  4.23792961E+00  4.23792982E+00  4.37588970E+00  4.37588989E+00
  4.67645914E+00
Alpha MO coefficients                      R   N=       15876
  4.05244669E-01  2.00606202E-02  0.00000000E+00  8.73770316E-05  5.63490837E-08
 -3.86740507E-03  0.00000000E+00 -3.62465585E-04 -3.68009469E-07  3.22155821E-04
  0.00000000E+00 -5.23642167E-04  4.15307018E-07 -3.91762216E-03 -3.76307053E-03
 -3.90363315E-03  0.00000000E+00  0.00000000E+00 -2.10342734E-08  4.05088304E-01