no title                                                                
SP        RB3LYP                                                      6-311+G(d)          
Number of atoms                            I               24
Info1-9                                    I   N=           9
          33          32           0           0           0         110
           1          18        -502
Full Title                                 C   N=           1
no title    
Route                                      C   N=           4
#p B3LYP/6-311+G* sp EmpiricalDispersion(GD3)   
Charge                                     I                0
Multiplicity                               I                1
Number of electrons                        I               84
Number of alpha electrons                  I               42
Number of beta electrons                   I               42
Number of basis functions                  I              300
Number of independent functions            I              299
Number of point charges in /Mol/           I                0
Number of translation vectors              I                0
Atomic numbers                             I   N=          24
           6           6           6           6           6           6
           1           1           1           1           1           1
           6           6           6           6           6           6
           1           1           1           1           1           1
Nuclear charges                            R   N=          24
  6.00000000E+00  6.00000000E+00  6.00000000E+00  6.00000000E+00  6.00000000E+00
  6.00000000E+00  1.00000000E+00  1.00000000E+00  1.00000000E+00  1.00000000E+00
  1.00000000E+00  1.00000000E+00  6.00000000E+00  6.00000000E+00  6.00000000E+00
  6.00000000E+00  6.00000000E+00  6.00000000E+00  1.00000000E+00  1.00000000E+00
  1.00000000E+00  1.00000000E+00  1.00000000E+00  1.00000000E+00
Current cartesian coordinates              R   N=          72
 -2.28205134E+00  1.30601344E+00  3.63811963E+00 -2.27211660E+00 -1.32320044E+00
  3.63811963E+00  9.89610947E-03 -2.62900453E+00  3.63526804E+00  2.28206088E+00
 -1.30606308E+00  3.63811963E+00  2.27215985E+00  1.32323219E+00  3.63811963E+00
 -9.93974635E-03  2.62902651E+00  3.63526804E+00 -4.04453826E+00  2.31561603E+00
  3.62624837E+00 -4.02695946E+00 -2.34606707E+00  3.62624837E+00  1.75754532E-02
 -4.65980687E+00  3.61596259E+00  4.04451735E+00 -2.31560720E+00  3.62624837E+00
  4.02692921E+00  2.34604752E+00  3.62624837E+00 -1.75792707E-02  4.65979309E+00
  3.61596259E+00  9.89610947E-03 -2.62900453E+00 -3.63526804E+00  2.28206088E+00
 -1.30606308E+00 -3.63811963E+00  2.27215985E+00  1.32323219E+00 -3.63811963E+00
 -9.93974635E-03  2.62902651E+00 -3.63526804E+00 -2.28205134E+00  1.30601344E+00
 -3.63811963E+00 -2.27211660E+00 -1.32320044E+00 -3.63811963E+00  1.75754532E-02
 -4.65980687E+00 -3.61596259E+00  4.04451735E+00 -2.31560720E+00 -3.62624837E+00
  4.02692921E+00  2.34604752E+00 -3.62624837E+00 -1.75792707E-02  4.65979309E+00
 -3.61596259E+00 -4.04453826E+00  2.31561603E+00 -3.62624837E+00 -4.02695946E+00
 -2.34606707E+00 -3.62624837E+00
Number of symbols in /Mol/                 I                0
Force Field                                I                0
Atom Types                                 C   N=          24
                                                            
                                                            
                                                            
                                                            
                                                
Int Atom Types                             I   N=          24
           0           0           0           0           0           0
           0           0           0           0           0           0
           0           0           0           0           0           0
           0           0           0           0           0           0
MM charges                                 R   N=          24
  0.00000000E+00  0.00000000E+00  0.00000000E+00  0.00000000E+00  0.00000000E+00
  0.00000000E+00  0.00000000E+00  0.00000000E+00  0.00000000E+00  0.00000000E+00
  0.00000000E+00  0.00000000E+00  0.00000000E+00  0.00000000E+00  0.00000000E+00
  0.00000000E+00  0.00000000E+00  0.00000000E+00  0.00000000E+00  0.00000000E+00
  0.00000000E+00  0.00000000E+00  0.00000000E+00  0.00000000E+00
Integer atomic weights                     I   N=          24
          12          12          12          12          12          12
           1           1           1           1           1           1
          12          12          12          12          12          12
           1           1           1           1           1           1
Real atomic weights                        R   N=          24
  1.20000000E+01  1.20000000E+01  1.20000000E+01  1.20000000E+01  1.20000000E+01
  1.20000000E+01  1.00782504E+00  1.00782504E+00  1.00782504E+00  1.00782504E+00
  1.00782504E+00  1.00782504E+00  1.20000000E+01  1.20000000E+01  1.20000000E+01
  1.20000000E+01  1.20000000E+01  1.20000000E+01  1.00782504E+00  1.00782504E+00
  1.00782504E+00  1.00782504E+00  1.00782504E+00  1.00782504E+00
Atom fragment info                         I   N=          24
           0           0           0           0           0           0
           0           0           0           0           0           0
           0           0           0           0           0           0
           0           0           0           0           0           0
Atom residue num                           I   N=          24
           0           0           0           0           0           0
           0           0           0           0           0           0
           0           0           0           0           0           0
           0           0           0           0           0           0
Nuclear spins                              I   N=          24
           0           0           0           0           0           0
           1           1           1           1           1           1
           0           0           0           0           0           0
           1           1           1           1           1           1
Nuclear ZEff                               R   N=          24
 -3.60000000E+00 -3.60000000E+00 -3.60000000E+00 -3.60000000E+00 -3.60000000E+00
 -3.60000000E+00 -1.00000000E+00 -1.00000000E+00 -1.00000000E+00 -1.00000000E+00
 -1.00000000E+00 -1.00000000E+00 -3.60000000E+00 -3.60000000E+00 -3.60000000E+00
 -3.60000000E+00 -3.60000000E+00 -3.60000000E+00 -1.00000000E+00 -1.00000000E+00
 -1.00000000E+00 -1.00000000E+00 -1.00000000E+00 -1.00000000E+00
Nuclear ZNuc                               R   N=          24
  6.00000000E+00  6.00000000E+00  6.00000000E+00  6.00000000E+00  6.00000000E+00
  6.00000000E+00  1.00000000E+00  1.00000000E+00  1.00000000E+00  1.00000000E+00
  1.00000000E+00  1.00000000E+00  6.00000000E+00  6.00000000E+00  6.00000000E+00
  6.00000000E+00  6.00000000E+00  6.00000000E+00  1.00000000E+00  1.00000000E+00
  1.00000000E+00  1.00000000E+00  1.00000000E+00  1.00000000E+00
Nuclear QMom                               R   N=          24
  0.00000000E+00  0.00000000E+00  0.00000000E+00  0.00000000E+00  0.00000000E+00
  0.00000000E+00  0.00000000E+00  0.00000000E+00  0.00000000E+00  0.00000000E+00
  0.00000000E+00  0.00000000E+00  0.00000000E+00  0.00000000E+00  0.00000000E+00
  0.00000000E+00  0.00000000E+00  0.00000000E+00  0.00000000E+00  0.00000000E+00
  0.00000000E+00  0.00000000E+00  0.00000000E+00  0.00000000E+00
Nuclear GFac                               R   N=          24
  0.00000000E+00  0.00000000E+00  0.00000000E+00  0.00000000E+00  0.00000000E+00
  0.00000000E+00  2.79284600E+00  2.79284600E+00  2.79284600E+00  2.79284600E+00
  2.79284600E+00  2.79284600E+00  0.00000000E+00  0.00000000E+00  0.00000000E+00
  0.00000000E+00  0.00000000E+00  0.00000000E+00  2.79284600E+00  2.79284600E+00
  2.79284600E+00  2.79284600E+00  2.79284600E+00  2.79284600E+00
MicOpt                                     I   N=          24
          -1          -1          -1          -1          -1          -1
          -1          -1          -1          -1          -1          -1
          -1          -1          -1          -1          -1          -1
          -1          -1          -1          -1          -1          -1
Number of residues                         I                0
Number of secondary structures             I                0
SymInf integers                            I   N=          26
           2           2           1           1           1           1
           1          -1           0           0           0           0
           0           0           0           0           0           0
           0           0           0           0           0           0
           0           0
RotTr to input orientation                 R   N=          12
  9.99992886E-01 -3.77210116E-03 -5.70999548E-18  3.77210116E-03  9.99992886E-01
 -3.49636384E-34  6.47911009E-18 -2.20782196E-20  1.00000000E+00  3.82444573E-06
  2.15968700E-06 -3.40150702E+00
Number of contracted shells                I              108
Number of primitive shells                 I              216
Pure/Cartesian d shells                    I                0
Pure/Cartesian f shells                    I                0
Highest angular momentum                   I                2
Largest degree of contraction              I                6
Shell types                                I   N=         108
           0          -1          -1          -1          -1          -2
           0          -1          -1          -1          -1          -2
           0          -1          -1          -1          -1          -2
           0          -1          -1          -1          -1          -2
           0          -1          -1          -1          -1          -2
           0          -1          -1          -1          -1          -2
           0           0           0           0           0           0
           0           0           0           0           0           0
           0           0           0           0           0           0
           0          -1          -1          -1          -1          -2
           0          -1          -1          -1          -1          -2
           0          -1          -1          -1          -1          -2
           0          -1          -1          -1          -1          -2
           0          -1          -1          -1          -1          -2
           0          -1          -1          -1          -1          -2
           0           0           0           0           0           0
           0           0           0           0           0           0
           0           0           0           0           0           0
Number of primitives per shell             I   N=         108
           6           3           1           1           1           1
           6           3           1           1           1           1
           6           3           1           1           1           1
           6           3           1           1           1           1
           6           3           1           1           1           1
           6           3           1           1           1           1
           3           1           1           3           1           1
           3           1           1           3           1           1
           3           1           1           3           1           1
           6           3           1           1           1           1
           6           3           1           1           1           1
           6           3           1           1           1           1
           6           3           1           1           1           1
           6           3           1           1           1           1
           6           3           1           1           1           1
           3           1           1           3           1           1
           3           1           1           3           1           1
           3           1           1           3           1           1
Shell to atom map                          I   N=         108
           1           1           1           1           1           1
           2           2           2           2           2           2
           3           3           3           3           3           3
           4           4           4           4           4           4
           5           5           5           5           5           5
           6           6           6           6           6           6
           7           7           7           8           8           8
           9           9           9          10          10          10
          11          11          11          12          12          12
          13          13          13          13          13          13
          14          14          14          14          14          14
          15          15          15          15          15          15
          16          16          16          16          16          16
          17          17          17          17          17          17
          18          18          18          18          18          18
          19          19          19          20          20          20
          21          21          21          22          22          22
          23          23          23          24          24          24
Primitive exponents                        R   N=         216
  4.56324000E+03  6.82024000E+02  1.54973000E+02  4.44553000E+01  1.30290000E+01
  1.82773000E+00  2.09642000E+01  4.80331000E+00  1.45933000E+00  4.83456000E-01
  1.45585000E-01  4.38000000E-02  6.26000000E-01  4.56324000E+03  6.82024000E+02
  1.54973000E+02  4.44553000E+01  1.30290000E+01  1.82773000E+00  2.09642000E+01
  4.80331000E+00  1.45933000E+00  4.83456000E-01  1.45585000E-01  4.38000000E-02
  6.26000000E-01  4.56324000E+03  6.82024000E+02  1.54973000E+02  4.44553000E+01
  1.30290000E+01  1.82773000E+00  2.09642000E+01  4.80331000E+00  1.45933000E+00
  4.83456000E-01  1.45585000E-01  4.38000000E-02  6.26000000E-01  4.56324000E+03
  6.82024000E+02  1.54973000E+02  4.44553000E+01  1.30290000E+01  1.82773000E+00
  2.09642000E+01  4.80331000E+00  1.45933000E+00  4.83456000E-01  1.45585000E-01
  4.38000000E-02  6.26000000E-01  4.56324000E+03  6.82024000E+02  1.54973000E+02
  4.44553000E+01  1.30290000E+01  1.82773000E+00  2.09642000E+01  4.80331000E+00
  1.45933000E+00  4.83456000E-01  1.45585000E-01  4.38000000E-02  6.26000000E-01
  4.56324000E+03  6.82024000E+02  1.54973000E+02  4.44553000E+01  1.30290000E+01
  1.82773000E+00  2.09642000E+01  4.80331000E+00  1.45933000E+00  4.83456000E-01
  1.45585000E-01  4.38000000E-02  6.26000000E-01  3.38650000E+01  5.09479000E+00
  1.15879000E+00  3.25840000E-01  1.02741000E-01  3.38650000E+01  5.09479000E+00
  1.15879000E+00  3.25840000E-01  1.02741000E-01  3.38650000E+01  5.09479000E+00
  1.15879000E+00  3.25840000E-01  1.02741000E-01  3.38650000E+01  5.09479000E+00
  1.15879000E+00  3.25840000E-01  1.02741000E-01  3.38650000E+01  5.09479000E+00
  1.15879000E+00  3.25840000E-01  1.02741000E-01  3.38650000E+01  5.09479000E+00
  1.15879000E+00  3.25840000E-01  1.02741000E-01  4.56324000E+03  6.82024000E+02
  1.54973000E+02  4.44553000E+01  1.30290000E+01  1.82773000E+00  2.09642000E+01
  4.80331000E+00  1.45933000E+00  4.83456000E-01  1.45585000E-01  4.38000000E-02
  6.26000000E-01  4.56324000E+03  6.82024000E+02  1.54973000E+02  4.44553000E+01
  1.30290000E+01  1.82773000E+00  2.09642000E+01  4.80331000E+00  1.45933000E+00
  4.83456000E-01  1.45585000E-01  4.38000000E-02  6.26000000E-01  4.56324000E+03
  6.82024000E+02  1.54973000E+02  4.44553000E+01  1.30290000E+01  1.82773000E+00
  2.09642000E+01  4.80331000E+00  1.45933000E+00  4.83456000E-01  1.45585000E-01
  4.38000000E-02  6.26000000E-01  4.56324000E+03  6.82024000E+02  1.54973000E+02
  4.44553000E+01  1.30290000E+01  1.82773000E+00  2.09642000E+01  4.80331000E+00
  1.45933000E+00  4.83456000E-01  1.45585000E-01  4.38000000E-02  6.26000000E-01
  4.56324000E+03  6.82024000E+02  1.54973000E+02  4.44553000E+01  1.30290000E+01
  1.82773000E+00  2.09642000E+01  4.80331000E+00  1.45933000E+00  4.83456000E-01
  1.45585000E-01  4.38000000E-02  6.26000000E-01  4.56324000E+03  6.82024000E+02
  1.54973000E+02  4.44553000E+01  1.30290000E+01  1.82773000E+00  2.09642000E+01
  4.80331000E+00  1.45933000E+00  4.83456000E-01  1.45585000E-01  4.38000000E-02
  6.26000000E-01  3.38650000E+01  5.09479000E+00  1.15879000E+00  3.25840000E-01
  1.02741000E-01  3.38650000E+01  5.09479000E+00  1.15879000E+00  3.25840000E-01
  1.02741000E-01  3.38650000E+01  5.09479000E+00  1.15879000E+00  3.25840000E-01
  1.02741000E-01  3.38650000E+01  5.09479000E+00  1.15879000E+00  3.25840000E-01
  1.02741000E-01  3.38650000E+01  5.09479000E+00  1.15879000E+00  3.25840000E-01
  1.02741000E-01  3.38650000E+01  5.09479000E+00  1.15879000E+00  3.25840000E-01
  1.02741000E-01
Contraction coefficients                   R   N=         216
  1.96665025E-03  1.52306019E-02  7.61269097E-02  2.60801033E-01  6.16462078E-01
  2.21006028E-01  1.14660081E-01  9.19999648E-01 -3.03068213E-03  1.00000000E+00
  1.00000000E+00  1.00000000E+00  1.00000000E+00  1.96665025E-03  1.52306019E-02
  7.61269097E-02  2.60801033E-01  6.16462078E-01  2.21006028E-01  1.14660081E-01
  9.19999648E-01 -3.03068213E-03  1.00000000E+00  1.00000000E+00  1.00000000E+00
  1.00000000E+00  1.96665025E-03  1.52306019E-02  7.61269097E-02  2.60801033E-01
  6.16462078E-01  2.21006028E-01  1.14660081E-01  9.19999648E-01 -3.03068213E-03
  1.00000000E+00  1.00000000E+00  1.00000000E+00  1.00000000E+00  1.96665025E-03
  1.52306019E-02  7.61269097E-02  2.60801033E-01  6.16462078E-01  2.21006028E-01
  1.14660081E-01  9.19999648E-01 -3.03068213E-03  1.00000000E+00  1.00000000E+00
  1.00000000E+00  1.00000000E+00  1.96665025E-03  1.52306019E-02  7.61269097E-02
  2.60801033E-01  6.16462078E-01  2.21006028E-01  1.14660081E-01  9.19999648E-01
 -3.03068213E-03  1.00000000E+00  1.00000000E+00  1.00000000E+00  1.00000000E+00
  1.96665025E-03  1.52306019E-02  7.61269097E-02  2.60801033E-01  6.16462078E-01
  2.21006028E-01  1.14660081E-01  9.19999648E-01 -3.03068213E-03  1.00000000E+00
  1.00000000E+00  1.00000000E+00  1.00000000E+00  2.54938145E-02  1.90373109E-01
  8.52161486E-01  1.00000000E+00  1.00000000E+00  2.54938145E-02  1.90373109E-01
  8.52161486E-01  1.00000000E+00  1.00000000E+00  2.54938145E-02  1.90373109E-01
  8.52161486E-01  1.00000000E+00  1.00000000E+00  2.54938145E-02  1.90373109E-01
  8.52161486E-01  1.00000000E+00  1.00000000E+00  2.54938145E-02  1.90373109E-01
  8.52161486E-01  1.00000000E+00  1.00000000E+00  2.54938145E-02  1.90373109E-01
  8.52161486E-01  1.00000000E+00  1.00000000E+00  1.96665025E-03  1.52306019E-02
  7.61269097E-02  2.60801033E-01  6.16462078E-01  2.21006028E-01  1.14660081E-01
  9.19999648E-01 -3.03068213E-03  1.00000000E+00  1.00000000E+00  1.00000000E+00
  1.00000000E+00  1.96665025E-03  1.52306019E-02  7.61269097E-02  2.60801033E-01
  6.16462078E-01  2.21006028E-01  1.14660081E-01  9.19999648E-01 -3.03068213E-03
  1.00000000E+00  1.00000000E+00  1.00000000E+00  1.00000000E+00  1.96665025E-03
  1.52306019E-02  7.61269097E-02  2.60801033E-01  6.16462078E-01  2.21006028E-01
  1.14660081E-01  9.19999648E-01 -3.03068213E-03  1.00000000E+00  1.00000000E+00
  1.00000000E+00  1.00000000E+00  1.96665025E-03  1.52306019E-02  7.61269097E-02
  2.60801033E-01  6.16462078E-01  2.21006028E-01  1.14660081E-01  9.19999648E-01
 -3.03068213E-03  1.00000000E+00  1.00000000E+00  1.00000000E+00  1.00000000E+00
  1.96665025E-03  1.52306019E-02  7.61269097E-02  2.60801033E-01  6.16462078E-01
  2.21006028E-01  1.14660081E-01  9.19999648E-01 -3.03068213E-03  1.00000000E+00
  1.00000000E+00  1.00000000E+00  1.00000000E+00  1.96665025E-03  1.52306019E-02
  7.61269097E-02  2.60801033E-01  6.16462078E-01  2.21006028E-01  1.14660081E-01
  9.19999648E-01 -3.03068213E-03  1.00000000E+00  1.00000000E+00  1.00000000E+00
  1.00000000E+00  2.54938145E-02  1.90373109E-01  8.52161486E-01  1.00000000E+00
  1.00000000E+00  2.54938145E-02  1.90373109E-01  8.52161486E-01  1.00000000E+00
  1.00000000E+00  2.54938145E-02  1.90373109E-01  8.52161486E-01  1.00000000E+00
  1.00000000E+00  2.54938145E-02  1.90373109E-01  8.52161486E-01  1.00000000E+00
  1.00000000E+00  2.54938145E-02  1.90373109E-01  8.52161486E-01  1.00000000E+00
  1.00000000E+00  2.54938145E-02  1.90373109E-01  8.52161486E-01  1.00000000E+00
  1.00000000E+00
P(S=P) Contraction coefficients            R   N=         216
  0.00000000E+00  0.00000000E+00  0.00000000E+00  0.00000000E+00  0.00000000E+00
  0.00000000E+00  4.02486927E-02  2.37593957E-01  8.15853851E-01  1.00000000E+00
  1.00000000E+00  1.00000000E+00  0.00000000E+00  0.00000000E+00  0.00000000E+00
  0.00000000E+00  0.00000000E+00  0.00000000E+00  0.00000000E+00  4.02486927E-02
  2.37593957E-01  8.15853851E-01  1.00000000E+00  1.00000000E+00  1.00000000E+00
  0.00000000E+00  0.00000000E+00  0.00000000E+00  0.00000000E+00  0.00000000E+00
  0.00000000E+00  0.00000000E+00  4.02486927E-02  2.37593957E-01  8.15853851E-01
  1.00000000E+00  1.00000000E+00  1.00000000E+00  0.00000000E+00  0.00000000E+00
  0.00000000E+00  0.00000000E+00  0.00000000E+00  0.00000000E+00  0.00000000E+00
  4.02486927E-02  2.37593957E-01  8.15853851E-01  1.00000000E+00  1.00000000E+00
  1.00000000E+00  0.00000000E+00  0.00000000E+00  0.00000000E+00  0.00000000E+00
  0.00000000E+00  0.00000000E+00  0.00000000E+00  4.02486927E-02  2.37593957E-01
  8.15853851E-01  1.00000000E+00  1.00000000E+00  1.00000000E+00  0.00000000E+00
  0.00000000E+00  0.00000000E+00  0.00000000E+00  0.00000000E+00  0.00000000E+00
  0.00000000E+00  4.02486927E-02  2.37593957E-01  8.15853851E-01  1.00000000E+00
  1.00000000E+00  1.00000000E+00  0.00000000E+00  0.00000000E+00  0.00000000E+00
  0.00000000E+00  0.00000000E+00  0.00000000E+00  0.00000000E+00  0.00000000E+00
  0.00000000E+00  0.00000000E+00  0.00000000E+00  0.00000000E+00  0.00000000E+00
  0.00000000E+00  0.00000000E+00  0.00000000E+00  0.00000000E+00  0.00000000E+00
  0.00000000E+00  0.00000000E+00  0.00000000E+00  0.00000000E+00  0.00000000E+00
  0.00000000E+00  0.00000000E+00  0.00000000E+00  0.00000000E+00  0.00000000E+00
  0.00000000E+00  0.00000000E+00  0.00000000E+00  0.00000000E+00  0.00000000E+00
  0.00000000E+00  0.00000000E+00  0.00000000E+00  0.00000000E+00  4.02486927E-02
  2.37593957E-01  8.15853851E-01  1.00000000E+00  1.00000000E+00  1.00000000E+00
  0.00000000E+00  0.00000000E+00  0.00000000E+00  0.00000000E+00  0.00000000E+00
  0.00000000E+00  0.00000000E+00  4.02486927E-02  2.37593957E-01  8.15853851E-01
  1.00000000E+00  1.00000000E+00  1.00000000E+00  0.00000000E+00  0.00000000E+00
  0.00000000E+00  0.00000000E+00  0.00000000E+00  0.00000000E+00  0.00000000E+00
  4.02486927E-02  2.37593957E-01  8.15853851E-01  1.00000000E+00  1.00000000E+00
  1.00000000E+00  0.00000000E+00  0.00000000E+00  0.00000000E+00  0.00000000E+00
  0.00000000E+00  0.00000000E+00  0.00000000E+00  4.02486927E-02  2.37593957E-01
  8.15853851E-01  1.00000000E+00  1.00000000E+00  1.00000000E+00  0.00000000E+00
  0.00000000E+00  0.00000000E+00  0.00000000E+00  0.00000000E+00  0.00000000E+00
  0.00000000E+00  4.02486927E-02  2.37593957E-01  8.15853851E-01  1.00000000E+00
  1.00000000E+00  1.00000000E+00  0.00000000E+00  0.00000000E+00  0.00000000E+00
  0.00000000E+00  0.00000000E+00  0.00000000E+00  0.00000000E+00  4.02486927E-02
  2.37593957E-01  8.15853851E-01  1.00000000E+00  1.00000000E+00  1.00000000E+00
  0.00000000E+00  0.00000000E+00  0.00000000E+00  0.00000000E+00  0.00000000E+00
  0.00000000E+00  0.00000000E+00  0.00000000E+00  0.00000000E+00  0.00000000E+00
  0.00000000E+00  0.00000000E+00  0.00000000E+00  0.00000000E+00  0.00000000E+00
  0.00000000E+00  0.00000000E+00  0.00000000E+00  0.00000000E+00  0.00000000E+00
  0.00000000E+00  0.00000000E+00  0.00000000E+00  0.00000000E+00  0.00000000E+00
  0.00000000E+00  0.00000000E+00  0.00000000E+00  0.00000000E+00  0.00000000E+00
  0.00000000E+00
Coordinates of each shell                  R   N=         324
 -2.28205134E+00  1.30601344E+00  3.63811963E+00 -2.28205134E+00  1.30601344E+00
  3.63811963E+00 -2.28205134E+00  1.30601344E+00  3.63811963E+00 -2.28205134E+00
  1.30601344E+00  3.63811963E+00 -2.28205134E+00  1.30601344E+00  3.63811963E+00
 -2.28205134E+00  1.30601344E+00  3.63811963E+00 -2.27211660E+00 -1.32320044E+00
  3.63811963E+00 -2.27211660E+00 -1.32320044E+00  3.63811963E+00 -2.27211660E+00
 -1.32320044E+00  3.63811963E+00 -2.27211660E+00 -1.32320044E+00  3.63811963E+00
 -2.27211660E+00 -1.32320044E+00  3.63811963E+00 -2.27211660E+00 -1.32320044E+00
  3.63811963E+00  9.89610947E-03 -2.62900453E+00  3.63526804E+00  9.89610947E-03
 -2.62900453E+00  3.63526804E+00  9.89610947E-03 -2.62900453E+00  3.63526804E+00
  9.89610947E-03 -2.62900453E+00  3.63526804E+00  9.89610947E-03 -2.62900453E+00
  3.63526804E+00  9.89610947E-03 -2.62900453E+00  3.63526804E+00  2.28206088E+00
 -1.30606308E+00  3.63811963E+00  2.28206088E+00 -1.30606308E+00  3.63811963E+00
  2.28206088E+00 -1.30606308E+00  3.63811963E+00  2.28206088E+00 -1.30606308E+00
  3.63811963E+00  2.28206088E+00 -1.30606308E+00  3.63811963E+00  2.28206088E+00
 -1.30606308E+00  3.63811963E+00  2.27215985E+00  1.32323219E+00  3.63811963E+00
  2.27215985E+00  1.32323219E+00  3.63811963E+00  2.27215985E+00  1.32323219E+00
  3.63811963E+00  2.27215985E+00  1.32323219E+00  3.63811963E+00  2.27215985E+00
  1.32323219E+00  3.63811963E+00  2.27215985E+00  1.32323219E+00  3.63811963E+00
 -9.93974635E-03  2.62902651E+00  3.63526804E+00 -9.93974635E-03  2.62902651E+00
  3.63526804E+00 -9.93974635E-03  2.62902651E+00  3.63526804E+00 -9.93974635E-03
  2.62902651E+00  3.63526804E+00 -9.93974635E-03  2.62902651E+00  3.63526804E+00
 -9.93974635E-03  2.62902651E+00  3.63526804E+00 -4.04453826E+00  2.31561603E+00
  3.62624837E+00 -4.04453826E+00  2.31561603E+00  3.62624837E+00 -4.04453826E+00
  2.31561603E+00  3.62624837E+00 -4.02695946E+00 -2.34606707E+00  3.62624837E+00
 -4.02695946E+00 -2.34606707E+00  3.62624837E+00 -4.02695946E+00 -2.34606707E+00
  3.62624837E+00  1.75754532E-02 -4.65980687E+00  3.61596259E+00  1.75754532E-02
 -4.65980687E+00  3.61596259E+00  1.75754532E-02 -4.65980687E+00  3.61596259E+00
  4.04451735E+00 -2.31560720E+00  3.62624837E+00  4.04451735E+00 -2.31560720E+00
  3.62624837E+00  4.04451735E+00 -2.31560720E+00  3.62624837E+00  4.02692921E+00
  2.34604752E+00  3.62624837E+00  4.02692921E+00  2.34604752E+00  3.62624837E+00
  4.02692921E+00  2.34604752E+00  3.62624837E+00 -1.75792707E-02  4.65979309E+00
  3.61596259E+00 -1.75792707E-02  4.65979309E+00  3.61596259E+00 -1.75792707E-02
  4.65979309E+00  3.61596259E+00  9.89610947E-03 -2.62900453E+00 -3.63526804E+00
  9.89610947E-03 -2.62900453E+00 -3.63526804E+00  9.89610947E-03 -2.62900453E+00
 -3.63526804E+00  9.89610947E-03 -2.62900453E+00 -3.63526804E+00  9.89610947E-03
 -2.62900453E+00 -3.63526804E+00  9.89610947E-03 -2.62900453E+00 -3.63526804E+00
  2.28206088E+00 -1.30606308E+00 -3.63811963E+00  2.28206088E+00 -1.30606308E+00
 -3.63811963E+00  2.28206088E+00 -1.30606308E+00 -3.63811963E+00  2.28206088E+00
 -1.30606308E+00 -3.63811963E+00  2.28206088E+00 -1.30606308E+00 -3.63811963E+00
  2.28206088E+00 -1.30606308E+00 -3.63811963E+00  2.27215985E+00  1.32323219E+00
 -3.63811963E+00  2.27215985E+00  1.32323219E+00 -3.63811963E+00  2.27215985E+00
  1.32323219E+00 -3.63811963E+00  2.27215985E+00  1.32323219E+00 -3.63811963E+00
  2.27215985E+00  1.32323219E+00 -3.63811963E+00  2.27215985E+00  1.32323219E+00
 -3.63811963E+00 -9.93974635E-03  2.62902651E+00 -3.63526804E+00 -9.93974635E-03
  2.62902651E+00 -3.63526804E+00 -9.93974635E-03  2.62902651E+00 -3.63526804E+00
 -9.93974635E-03  2.62902651E+00 -3.63526804E+00 -9.93974635E-03  2.62902651E+00
 -3.63526804E+00 -9.93974635E-03  2.62902651E+00 -3.63526804E+00 -2.28205134E+00
  1.30601344E+00 -3.63811963E+00 -2.28205134E+00  1.30601344E+00 -3.63811963E+00
 -2.28205134E+00  1.30601344E+00 -3.63811963E+00 -2.28205134E+00  1.30601344E+00
 -3.63811963E+00 -2.28205134E+00  1.30601344E+00 -3.63811963E+00 -2.28205134E+00
  1.30601344E+00 -3.63811963E+00 -2.27211660E+00 -1.32320044E+00 -3.63811963E+00
 -2.27211660E+00 -1.32320044E+00 -3.63811963E+00 -2.27211660E+00 -1.32320044E+00
 -3.63811963E+00 -2.27211660E+00 -1.32320044E+00 -3.63811963E+00 -2.27211660E+00
 -1.32320044E+00 -3.63811963E+00 -2.27211660E+00 -1.32320044E+00 -3.63811963E+00
  1.75754532E-02 -4.65980687E+00 -3.61596259E+00  1.75754532E-02 -4.65980687E+00
 -3.61596259E+00  1.75754532E-02 -4.65980687E+00 -3.61596259E+00  4.04451735E+00
 -2.31560720E+00 -3.62624837E+00  4.04451735E+00 -2.31560720E+00 -3.62624837E+00
  4.04451735E+00 -2.31560720E+00 -3.62624837E+00  4.02692921E+00  2.34604752E+00
 -3.62624837E+00  4.02692921E+00  2.34604752E+00 -3.62624837E+00  4.02692921E+00
  2.34604752E+00 -3.62624837E+00 -1.75792707E-02  4.65979309E+00 -3.61596259E+00
 -1.75792707E-02  4.65979309E+00 -3.61596259E+00 -1.75792707E-02  4.65979309E+00
 -3.61596259E+00 -4.04453826E+00  2.31561603E+00 -3.62624837E+00 -4.04453826E+00
  2.31561603E+00 -3.62624837E+00 -4.04453826E+00  2.31561603E+00 -3.62624837E+00
 -4.02695946E+00 -2.34606707E+00 -3.62624837E+00 -4.02695946E+00 -2.34606707E+00
 -3.62624837E+00 -4.02695946E+00 -2.34606707E+00 -3.62624837E+00
Num ILSW                                   I              100
ILSW                                       I   N=         100
           0           0           0           0           2           0