ITEM: TIMESTEP
0
ITEM: NUMBER OF ATOMS
108
ITEM: BOX BOUNDS pp pp pp
0.0000000000000000e+00 1.2150000000000000e+01
0.0000000000000000e+00 1.2149999999999990e+01
0.0000000000000000e+00 1.2149999999999990e+01
ITEM: ATOMS id type xsu ysu zsu fx fy fz 
1 1                    0                    0                    0 -5.55111512312578e-16 2.32730501537048e-14 2.34534613952064e-14 
2 1                    0    0.166666666666629    0.166666666666629 -1.38777878078145e-16 9.71445146547012e-17 2.63677968348475e-16 
3 1    0.166666666666629                    0    0.166666666666629  1.0547118733939e-15 2.37310171513627e-14  2.4980018054066e-16 
4 1    0.166666666666629    0.166666666666629                    0 1.13797860024079e-15 1.21430643318376e-15 2.44734787990808e-14 
5 1                    0    0.333333333333371                    0 -3.19189119579733e-16 -7.63278329429795e-17 2.19685380997703e-14 
6 1                    0                  0.5    0.166666666666629 -6.38378239159465e-16 3.13192126313172e-16 5.27355936696949e-16 
7 1    0.166666666666629    0.333333333333371    0.166666666666629 1.94289029309402e-16 -9.08995101411847e-16 3.59087759527199e-16 
8 1    0.166666666666629                  0.5                    0 1.49880108324396e-15 1.78781550111071e-15 2.45278481498992e-14 
9 1                    0    0.666666666666629                    0 -5.27355936696949e-16 9.29811783123569e-16 2.32938668354166e-14 
10 1                    0    0.833333333333371    0.166666666666629 -5.96744875736022e-15 -2.47198095326695e-14 1.11022302462516e-15 
11 1    0.166666666666629    0.666666666666629    0.166666666666629 2.05391259555654e-15 1.26634813746307e-16 -4.66640615037761e-16 
12 1    0.166666666666629    0.833333333333371                    0 2.88657986402541e-15 -2.39183672867682e-14 2.31065167000111e-14 
13 1    0.333333333333371                    0                    0 -1.00855196590033e-15 2.29551010903599e-14 2.30938688040427e-14 
14 1    0.333333333333371    0.166666666666629    0.166666666666629 -1.46917525888079e-15 3.33371839248559e-16 2.90003752349138e-16 
15 1                  0.5                    0    0.166666666666629 2.07305554016449e-15 2.38018595989393e-14 1.52655665885959e-16 
16 1                  0.5    0.166666666666629                    0 1.95291916318951e-15 1.02695629777827e-15 2.45512838574838e-14 
17 1    0.333333333333371    0.333333333333371                    0 -3.11816544806831e-16 -5.53901949263899e-16 2.32203071061452e-14 
18 1    0.333333333333371                  0.5    0.166666666666629 -3.60307486971245e-16 1.07339308014863e-15 -4.15988044791954e-16 
19 1                  0.5    0.333333333333371    0.166666666666629 1.41214510655716e-15 -1.12757025938492e-16 3.33348122326035e-16 
20 1                  0.5                  0.5                    0 2.86648146625296e-15 1.02176906800928e-15 2.46263614697966e-14 
21 1    0.333333333333371    0.666666666666629                    0 -2.53922859301536e-15 1.48466579742018e-15 2.38161947845386e-14 
22 1    0.333333333333371    0.833333333333371    0.166666666666629 -2.80542733141487e-15 -2.47379631427951e-14 -4.12911621127526e-17 
23 1                  0.5    0.666666666666629    0.166666666666629 -3.6120664305677e-16 -2.60208521396521e-16 1.97758476261356e-16 
24 1                  0.5    0.833333333333371                    0 -5.8261636617582e-16 -2.42583730880597e-14 2.46768886791662e-14 
25 1    0.666666666666629                    0                    0 1.81799020282369e-15 2.40953090813179e-14 2.42913328341032e-14 
26 1    0.666666666666629    0.166666666666629    0.166666666666629 1.04083408558608e-16 4.04190569902596e-16  4.0766001685455e-16 
27 1    0.833333333333371                    0    0.166666666666629 2.08166817117217e-16 2.24299745443801e-14 2.22044604925031e-16 
28 1    0.833333333333371    0.166666666666629                    0 1.94289029309402e-16 1.23512311489549e-15  2.3189783426858e-14 
29 1    0.666666666666629    0.333333333333371                    0 1.08246744900953e-15 1.22921421305544e-16 2.34395836073986e-14 
30 1    0.666666666666629                  0.5    0.166666666666629 1.66533453693773e-16                    0 9.71445146547012e-17 
31 1    0.833333333333371    0.333333333333371    0.166666666666629 -1.38777878078145e-16 -5.70425867998936e-17 3.88578058618805e-16 
32 1    0.833333333333371                  0.5                    0 2.77555756156289e-16 1.26287869051112e-15 2.33493779866478e-14 
33 1    0.666666666666629    0.666666666666629                    0 1.60982338570648e-15 4.77048955893622e-16 2.45012343746964e-14 
34 1    0.666666666666629    0.833333333333371    0.166666666666629 9.97465998686664e-16 -2.32730501537048e-14 9.71445146547012e-17 
35 1    0.833333333333371    0.666666666666629    0.166666666666629 2.66453525910038e-15 1.38777878078145e-15 1.42941214420489e-15 
36 1    0.833333333333371    0.833333333333371                    0 1.66533453693773e-15 -2.39530617562878e-14 2.40224506953268e-14 
37 1                    0                    0    0.333333333333371 -2.77555756156289e-16 2.30891694652513e-14 -8.88178419700125e-16 
38 1                    0    0.166666666666629                  0.5 -5.68989300120393e-16 1.02695629777827e-15 9.47159017883337e-16 
39 1    0.166666666666629                    0                  0.5 1.41553435639707e-15 2.41959230429245e-14 1.55812049460607e-15 
40 1    0.166666666666629    0.166666666666629    0.333333333333371 8.32667268468867e-17 3.90312782094782e-16 -6.24500451351651e-16 
41 1                    0    0.333333333333371    0.333333333333371 -9.71445146547012e-17 6.93889390390723e-17 1.17961196366423e-16 
42 1                    0                  0.5                  0.5 -4.96824803519758e-15 1.97201467395242e-15 8.92854041568969e-16 
43 1    0.166666666666629    0.333333333333371                  0.5 -1.72084568816899e-15 -2.53269627492614e-16 1.02348685082632e-15 
44 1    0.166666666666629                  0.5    0.333333333333371 -1.84574577843932e-15 7.70252239692037e-16 -2.0122792321331e-16 
45 1                    0    0.666666666666629    0.333333333333371 -5.60662627435704e-15 6.24500451351651e-17 2.63677968348475e-16 
46 1                    0    0.833333333333371                  0.5 -5.32907051820075e-15 -2.64267774330307e-14 1.73472347597681e-15 
47 1    0.166666666666629    0.666666666666629                  0.5 5.55111512312578e-17 5.06539254985228e-16 7.52869988573934e-16 
48 1    0.166666666666629    0.833333333333371    0.333333333333371 -1.20736753927986e-15 -2.4605317783255e-14 -9.35015953551499e-16 
49 1    0.333333333333371                    0    0.333333333333371 -3.76163943743846e-16  2.4120791220503e-14 -1.22018484183771e-15 
50 1    0.333333333333371    0.166666666666629                  0.5 -3.75540527494667e-16 -1.10700429942559e-16 1.48073217641313e-15 
51 1                  0.5                    0                  0.5 2.75899637337818e-15  2.4495620240322e-14   7.950827225333e-16 
52 1                  0.5    0.166666666666629    0.333333333333371 1.43258134858906e-15  2.4980018054066e-16 -3.46944695195361e-16 
53 1    0.333333333333371    0.333333333333371    0.333333333333371 -9.20311461587164e-16 -1.06593336587912e-15 -9.09713385351119e-16 
54 1    0.333333333333371                  0.5                  0.5 7.46581615973518e-16 1.84680401059794e-15 6.91422830448318e-16 
55 1                  0.5    0.333333333333371                  0.5 2.33746534497939e-15 -1.21159592775255e-17 6.28417131699754e-16 
56 1                  0.5                  0.5    0.333333333333371 2.38239874876534e-15 4.31658154316159e-16 1.36907629330607e-16 
57 1    0.333333333333371    0.666666666666629    0.333333333333371 -1.19655262260931e-15  6.7776527120679e-16 -2.93649382154121e-16 
58 1    0.333333333333371    0.833333333333371                  0.5 -1.38821246165044e-15 -2.52308109572209e-14 1.80403448798473e-15 
59 1                  0.5    0.666666666666629                  0.5 4.76981193257842e-16 -1.52655665885959e-16 -6.29955343531968e-17 
60 1                  0.5    0.833333333333371    0.333333333333371 -4.78770126842443e-16 -2.48566629518915e-14 -9.68070567285151e-16 
61 1    0.666666666666629                    0    0.333333333333371 1.00613961606655e-15 2.43693953905222e-14 -5.13478148889135e-16 
62 1    0.666666666666629    0.166666666666629                  0.5 2.91433543964104e-16 4.61436444609831e-16 5.13478148889135e-16 
63 1    0.833333333333371                    0                  0.5 2.42861286636753e-16 2.29399832463173e-14 1.08940634291343e-15 
64 1    0.833333333333371    0.166666666666629    0.333333333333371 -7.63278329429795e-17 2.63677968348475e-16 -7.97972798949331e-17 
65 1    0.666666666666629    0.333333333333371    0.333333333333371 8.35343892582191e-17 5.67579837296162e-17 4.27074012005618e-17 
66 1    0.666666666666629                  0.5                  0.5 6.93889390390723e-16 8.15320033709099e-16 -4.63171168085807e-16 
67 1    0.833333333333371    0.333333333333371                  0.5 1.81799020282369e-15 1.30227588695381e-15 2.24820162486594e-15 
68 1    0.833333333333371                  0.5    0.333333333333371  1.8249290967276e-15 2.11983208764366e-15 1.16573417585641e-15 
69 1    0.666666666666629    0.666666666666629    0.333333333333371 1.52829138233557e-15 -3.05311331771918e-16 4.22893057377971e-16 
70 1    0.666666666666629    0.833333333333371                  0.5 2.24820162486594e-15 -2.46434816997265e-14 7.56339435525888e-16 
71 1    0.833333333333371    0.666666666666629                  0.5  4.3159920082303e-15 2.70616862252382e-16 1.38777878078145e-15 
72 1    0.833333333333371    0.833333333333371    0.333333333333371 3.36932765758816e-15 -2.59568706589483e-14 -8.46030060244751e-16 
73 1                    0                    0    0.666666666666629 -5.96744875736022e-16 2.25514051876985e-14 -1.38777878078145e-17 
74 1                    0    0.166666666666629    0.833333333333371 -6.43929354282591e-15 3.88578058618805e-15 -2.51881848711832e-14 
75 1    0.166666666666629                    0    0.833333333333371 3.40005801291454e-15 1.81504117291453e-14 -2.48481790698918e-14 
76 1    0.166666666666629    0.166666666666629    0.666666666666629 1.80411241501588e-15 1.47278023110431e-15 3.92047505570758e-16 
77 1                    0    0.333333333333371    0.666666666666629 -5.68989300120393e-15 -2.92127433354494e-15 7.49400541621981e-16 
78 1                    0                  0.5    0.833333333333371 -4.77395900588817e-15 -1.29398851659787e-15 -2.62290189567693e-14 
79 1    0.166666666666629    0.333333333333371    0.833333333333371 -1.4432899320127e-15  -2.468511506315e-15 -2.52593085336983e-14 
80 1    0.166666666666629                  0.5    0.666666666666629 -4.16333634234434e-16 -4.45823933326039e-16 5.20417042793042e-18 
81 1                    0    0.666666666666629    0.666666666666629 -5.41233724504764e-15 1.33226762955019e-15 -5.41233724504764e-16 
82 1                    0    0.833333333333371    0.833333333333371 -5.28743715477731e-15 -2.34950947586299e-14 -2.61700383585861e-14 
83 1    0.166666666666629    0.666666666666629    0.833333333333371 9.99200722162641e-16 1.73298875250083e-15 -2.37032615757471e-14 
84 1    0.166666666666629    0.833333333333371    0.666666666666629 1.04083408558608e-15 -2.31203944878189e-14 1.35828848168984e-15 
85 1    0.333333333333371                    0    0.666666666666629 -2.66261080024421e-15 2.30807025239105e-14 5.54826909242301e-16 
86 1    0.333333333333371    0.166666666666629    0.833333333333371 -2.94892148894332e-15 1.55498647270123e-15 -2.5147415481366e-14 
87 1                  0.5                    0    0.833333333333371 -5.4917550541822e-16 2.00413517975184e-14 -2.52436960224145e-14 
88 1                  0.5    0.166666666666629    0.666666666666629 -3.36164961004144e-16 1.85962356624714e-15 -2.20309881449055e-16 
89 1    0.333333333333371    0.333333333333371    0.666666666666629 -1.4528851212392e-15 -2.47701232897364e-15 1.37338260880991e-15 
90 1    0.333333333333371                  0.5    0.833333333333371 -1.37414493846244e-15 -7.06293340870315e-16 -2.46439729788359e-14 
91 1                  0.5    0.333333333333371    0.833333333333371 -6.83467497007706e-16 -2.24486770318555e-15 -2.54184897414099e-14 
92 1                  0.5                  0.5    0.666666666666629 2.06167819361697e-16 -1.31887095645641e-15 -4.64905891561784e-16 
93 1    0.333333333333371    0.666666666666629    0.666666666666629 -3.2172886316878e-15 2.08485979131742e-15 2.96309065608499e-16 
94 1    0.333333333333371    0.833333333333371    0.833333333333371 -4.51972714896748e-15 -2.23702553334669e-14 -2.50847621483235e-14 
95 1                  0.5    0.666666666666629    0.833333333333371 -3.34801630863524e-15 1.26981758441502e-15 -2.38004060904018e-14 
96 1                  0.5    0.833333333333371    0.666666666666629 -2.91433543964104e-15 -2.34048891378791e-14 6.52256026967279e-16 
97 1    0.666666666666629                    0    0.666666666666629 1.85962356624714e-15 2.37518338330744e-14 -3.22658566531686e-16 
98 1    0.666666666666629    0.166666666666629    0.833333333333371 1.63410951437015e-15 2.10595429983584e-15 -2.38212227721135e-14 
99 1    0.833333333333371                    0    0.833333333333371 1.98105420956551e-15  1.9744622603568e-14 -2.51465515077598e-14 
100 1    0.833333333333371    0.166666666666629    0.666666666666629 2.81719092498633e-15 3.80251385934116e-15 1.60982338570648e-15 
101 1    0.666666666666629    0.333333333333371    0.666666666666629 2.00707506170517e-15 -2.26685797965771e-15 6.03683769639929e-16 
102 1    0.666666666666629                  0.5    0.833333333333371 2.50494069931051e-15 -1.88564441838679e-15 -2.41300035508374e-14 
103 1    0.833333333333371    0.333333333333371    0.833333333333371 3.46647217224286e-15 -3.2607854675952e-15 -2.65882557940952e-14 
104 1    0.833333333333371                  0.5    0.666666666666629 3.60822483003176e-15 -3.57353036051222e-16 -1.2490009027033e-16 
105 1    0.666666666666629    0.666666666666629    0.666666666666629 3.06005221162309e-15 4.30211422042248e-16 -8.06646416329215e-16 
106 1    0.666666666666629    0.833333333333371    0.833333333333371  3.6498581934552e-15 -2.2310820725624e-14 -2.43940609899462e-14 
107 1    0.833333333333371    0.666666666666629    0.833333333333371 3.35322047906317e-15 1.87350135405495e-15 -2.52957377266938e-14 
108 1    0.833333333333371    0.833333333333371    0.666666666666629 4.13558076672871e-15 -2.48100151534203e-14 8.60422844084496e-16 
ITEM: TIMESTEP
100
ITEM: NUMBER OF ATOMS
108
ITEM: BOX BOUNDS pp pp pp
-8.6048558677211062e-02 1.2236048558677213e+01
-8.6048558677211062e-02 1.2236048558677203e+01
-8.6048558677211062e-02 1.2236048558677203e+01
ITEM: ATOMS id type xsu ysu zsu fx fy fz 
1 1  0.00648932457352203  -0.0156989004541401   0.0264821701338178   -0.373497916978037   0.0950605444205136   -0.320752983046809 
2 1 -0.000609433794068082    0.157916554813823    0.162596628537358    0.556698265036494   -0.355302892516935    0.058878623340562 
3 1    0.158262398970578   -0.039993392093038    0.187137093076217   -0.299628994528806    0.405432849063085   -0.140031967546174 
4 1    0.183053028599829    0.173064624458334   0.0101198495847257   -0.590495003957153 -0.00876118397019107    0.460548738753451 
5 1   0.0280303049784152    0.332972378215459 -0.00267949099304587   -0.645602426863894    0.422769536482204    0.150240846857299 
6 1  0.00358072073356652    0.521242900408765    0.154635817747021   -0.383750121444131   -0.987451950835428   -0.226368589255894 
7 1    0.153902394250849     0.33222591190588    0.174192783311696    0.765553809822784     0.18352332405857   -0.114866380490752 
8 1    0.173622742173848    0.506268752897995   0.0130795070730301   -0.609477975943905    0.482545465072694   0.0313387482589055 
9 1  -0.0135760490807115    0.671157045137875  -0.0249516344834433    0.155878295684685   -0.469435237445124    0.433345503543014 
10 1  -0.0356631007450687    0.830865432334235    0.188796343063018    0.208321510740823    0.632295888304974   -0.693715974684697 
11 1    0.121882479935266    0.685300169472612    0.189047645298615    0.749613057411583    0.487456924922076   -0.531427718122558 
12 1    0.154336448744289    0.809507434329817 -0.00752842335464265    0.139513993677833    0.159189922090401    0.436596980785148 
13 1    0.312488036885043 -0.00888671687260967   0.0360667979310847    0.377106875273764    0.202214067747875   -0.253517750855659 
14 1    0.308155034399874     0.16632195645775    0.184443752169614    0.651178962675239    0.108199099927337     0.20826995945438 
15 1    0.512079650606665  0.00375766377680975    0.155120667373012   -0.750737859460953    0.308180146423039    0.745577051802484 
16 1    0.496935837811407    0.181279463434407   0.0383842818124549     -1.2010244242135  -0.0327874017595154   -0.996153784460416 
17 1    0.318601611678332    0.364185700974758 -0.00821763566978007      0.2005571500294   -0.960827338224535    0.485681601269122 
18 1     0.33660716007239      0.5703958798141    0.151228923703002   -0.116397788364693    -0.51025756775088    0.601196209608609 
19 1    0.477051988500307     0.35980359827272    0.165738475326521   0.0900124538485724  -0.0839663112720102    0.125909394937831 
20 1    0.496234335477993    0.500631319961713 0.000332764967765797   -0.111420489387123   -0.176909246378075   -0.333886606661446 
21 1     0.33778156027347    0.674479607715853  -0.0325763223156059    0.315655573704542   -0.329331721438072     0.65873910615898 
22 1    0.323915001125329     0.81050277497809    0.165693446299201   -0.141143927287015   -0.206647549181968   -0.145140195361563 
23 1    0.516166657954273     0.69037849550341    0.178464640394736   -0.786462024520727    -1.41087152540257   -0.546080827588465 
24 1    0.480040001985685    0.847005822446363 -0.00659760816608923  -0.0453182728923418   -0.117050625116068   -0.289339212085148 
25 1    0.651980910423049   0.0207438683892178 -0.00251314501463185   -0.263197902309164   -0.571594828080052   -0.500803311511293 
26 1    0.654236199764796    0.191905774578231    0.170570141423696    0.554346231035764   -0.392319171978316    0.643384725715619 
27 1    0.799628238968012   0.0199005795044513    0.158702891296684    0.323756592349785   -0.224796906087729    0.230358697324849 
28 1    0.824358902127528    0.137410502975854  -0.0298363554420007    0.936567977102408    0.520815589722863    0.880852158006176 
29 1    0.661323804870676    0.316255507697633 -0.00334601666969547  -0.0386966813949912    0.427850476052995    -0.32998092509272 
30 1    0.694711337342255    0.503118786141954    0.139774877964442    -1.03356743967788    -0.85439870681573    0.950153857316732 
31 1    0.847247689265942    0.302285713096808    0.148479283961137   -0.321011600846269    0.507161301087633   -0.179982752082325 
32 1    0.833994723210367    0.463827893951475 -0.00848339527868802    0.730734187285621    0.100668385433073   -0.387358811254528 
33 1    0.646330975826004    0.643319118223303 -0.00453933461875522     0.34954682094049     1.12864020203243   -0.602068111121599 
34 1     0.64643704729076    0.835422085387336    0.124276178353512     1.52067272765616    0.348632263950343   -0.267365550577545 
35 1    0.824923731797639    0.662403758528967    0.148725575926278    0.257775814256204    0.630370213590678   0.0722582025618403 
36 1    0.827639785212227    0.823476395118405   -0.018307968817453   -0.305562292723699  -0.0941617510459322    0.408640456326481 
37 1   0.0245853165775998  -0.0282246864239823    0.364589368678139   -0.545475361095344   0.0860232056855777    0.282576126803563 
38 1   0.0187472943146076    0.147501936118033     0.51589111280623   -0.449263462352718    0.595228960544146   -0.262109212900768 
39 1     0.19568962779465 -0.00340671434878459    0.519326814705209   -0.995709489304317    -1.05834517362136    0.160440296770963 
40 1    0.161116414328148    0.153827513481701      0.3493449457618     -0.3800806015923  -0.0234753690381423   -0.742365734022439 
41 1    0.008519766189238    0.334597726966194     0.32303496079669  -0.0947613378767971  -0.0184539992977621    0.183640032914753 
42 1  0.00876327766434315    0.509208694065137    0.467002822875656    0.500573779479115  -0.0193066005471399    0.928915652924118 
43 1    0.189672431858412     0.32506828850228    0.486230575627019   -0.764887005356459     0.33030541642262    0.612060385847044 
44 1    0.182920706996583    0.534012052897083    0.330712388579059   0.0920874061600518   -0.558103476092024   -0.259445521986774 
45 1  -0.0239187210810314     0.71497825199549    0.369070388384898    0.194351622752007   -0.254650306743986    0.112306837796427 
46 1 9.23934250067759e-05    0.822500256023886    0.563883440000609    0.136309756128071     1.03945722202182   -0.704331430915509 
47 1    0.174661604804214    0.668259223354426    0.511987597786629   -0.548845117294042     0.20931638288051   -0.172472039103786 
48 1    0.186423732823982    0.818583754142765    0.351823669348391   -0.108276761081551    0.152094129881954    0.486244456107135 
49 1    0.333010003518666  -0.0100547608561214    0.323071661749168    0.379635550984183    0.403529135732255   -0.337411234260645 
50 1    0.324877265871237      0.1496433750915     0.48685408840231     1.33717629046398     0.86378881057146    0.359433439558036 
51 1    0.528323576986509   0.0399186237278855        0.50672228597    -0.64003498559923   -0.192724551508746    0.282514380396101 
52 1    0.507036928162279    0.182051114704677    0.332608211558636    -0.65187030587241    0.384873756424509   0.0177383521940229 
53 1    0.331936359597762    0.353086281406377    0.331938189832385    0.274740859067498    -0.18588694608736    -0.40944013549438 
54 1    0.334081975038885    0.508059781145903    0.495981136755859     0.37346914977846   -0.163643192819873  -0.0403576416876004 
55 1    0.510651554972355    0.330150163612643    0.503607581804204   0.0281104426393186    0.124630914332682   -0.168747124626202 
56 1    0.517179548658987    0.494067847615611    0.338202108104952   -0.424233704560634    0.268166205527671  -0.0328184667210469 
57 1    0.356054524085835    0.682685064603334    0.348569331212616     0.23599610316307   -0.458720366771904   -0.127651289744182 
58 1    0.379940956360201    0.853818962538071    0.482442980822384   -0.215602716450353     0.20866685250659    0.330337418917684 
59 1    0.509140123850784    0.675903482823742    0.512870872455437    0.221476146108067   -0.324721936274612   -0.506304104098776 
60 1    0.525905491259891    0.850355395421843    0.306382196171398   -0.203679209001926    0.435094784100573     1.07882786946605 
61 1    0.657056164288974   0.0312690982972299    0.344625882872037    0.852280674002622   -0.175964314484415   -0.692869225057374 
62 1    0.702919195005052    0.206524720943776    0.488154806165085   -0.899581432932172    -1.31298520826198     -1.4211695055053 
63 1    0.826482270541078 -0.00143883649286636    0.500147586463754    0.859121763886801 -0.00624998078993995   -0.399051443898414 
64 1    0.855318281174505    0.160453161192891    0.332260012155643   0.0289687381787706   -0.126317923903863   0.0685373509624075 
65 1    0.693607490656746    0.361358171812185     0.30567098581048  -0.0694160764014185   -0.223637240724739      0.3596578447688 
66 1    0.683084368574782    0.513293314058387    0.484939040848985  -0.0269180418858844   -0.511446558646384    0.465512171412063 
67 1    0.852080963510844     0.34510658419731      0.4716636931023    0.385535605357987    0.502735717388359    0.401056524918102 
68 1    0.860149786347733    0.517732024967131    0.319077816735557   -0.720102247977319   0.0441592796196158   -0.196380349240599 
69 1    0.662523203721094    0.661129150588522    0.332296568702645     0.48624123434495    0.437268319847661  -0.0378232347463159 
70 1    0.671524051297979    0.848849162041915     0.48956036187451    -0.71255976051189   -0.240652600160157    0.170329677201062 
71 1    0.818000275617464    0.687418391023698    0.521504297070578     0.18315429482342   -0.180221540112682    -0.13497800581637 
72 1    0.790797965005027    0.849296337017677    0.304707327224946   -0.209404525041264  -0.0639215557411261    0.257267254281869 
73 1   0.0109716319516338   0.0178744987085793     0.68545857789502   -0.113255234610021   -0.369681781799406    0.442209252441083 
74 1   0.0293316490499365    0.176091835065449    0.853722521875625   -0.985113635319633   -0.705454318594798   -0.176672120426531 
75 1    0.168175276225156  -0.0100320780929906    0.865697561908974    -0.44949441691066   -0.114408787000221   -0.541523698714893 
76 1    0.169219299671113    0.177009167597134    0.682214333079173    0.498296545694737   -0.593190446376933   -0.716604716027898 
77 1   0.0020108446398126    0.342278301977444    0.653796170616715  -0.0214847347932327   -0.350894461878592   -0.147737514064575 
78 1  0.00436731722504646    0.489597154267813    0.830830454060219   -0.237966852779983  -0.0611347145979352 -0.00812405516311654 
79 1    0.170237829748089    0.333450814516709     0.81727807425932    0.477447136144067    0.787935015299707    0.448437273729624 
80 1    0.167319755014319     0.49964053868905    0.658445729603386   -0.201228370391018   -0.152344805224576  -0.0508011618076678 
81 1  -0.0276947312819971    0.668309948481919    0.693069793566224    0.395116095663674   -0.912780865031529    0.355932148181249 
82 1   -0.010647714031677     0.83885967730555    0.826189736359765    0.478094304153093    0.277579300075875    0.254015650382901 
83 1    0.170079528157999    0.639589733679827    0.841133481554948    -0.63701015873916    0.239342603423435   -0.396543248182677 
84 1    0.175326963681641    0.807554068060767    0.698659295914695   -0.861772849166203    0.686947938072651   -0.691645088986929 
85 1    0.345132022137705 -0.00694020705077492    0.672126700543231   -0.382710843984522   0.0995929311263941    0.108004559266429 
86 1    0.319958973543521    0.144905828155174    0.856449553681045    0.851927373399422   0.0346082045517786    -0.53481889596657 
87 1    0.509343928144176  -0.0195316530769674    0.813773294206385  -0.0520269692421334    0.439349911391214    0.510940593539311 
88 1    0.480880395330928    0.172073743615556    0.676180777413492    0.356019327616549   -0.265616337081166    0.083674260473128 
89 1    0.345285121995175    0.335437805243487    0.653865711682215   -0.599806565075903    0.185532724011865   0.0133034776736856 
90 1    0.335019432867284    0.500035674697415    0.817370063653925  0.00458553866229825   -0.489731011712508  -0.0886922989351448 
91 1    0.467905479479327    0.314451549537807    0.845925890707349    0.715789287595406    0.105284871593451  -0.0205915447666544 
92 1    0.497313439614572    0.504573755627575      0.6537123580855   0.0920289993669414    -0.61584330918076   -0.145119173405422 
93 1    0.327146128577283     0.66364502140209    0.660867542484766    0.504084185467288   -0.045663164998176    0.221982739733094 
94 1    0.325553325215992    0.830833311661877    0.835215981622355    0.577784170507722    0.582203528679079   -0.158501041766985 
95 1    0.495249198855845    0.647651941846334    0.816264308394011   0.0105977797805986    0.315556966216048    0.600702235360621 
96 1    0.492898766833605    0.822546115632463    0.665966332813127    0.314729701816889    0.109108720368323    0.101480625562173 
97 1    0.676461434334442 -0.00101228097145167    0.660776799565724   -0.744462433582541   -0.460125196653032    0.113979039041558 
98 1     0.65676342329175    0.153470088440827     0.82191596980806   -0.490995685079607    0.119004043015879   -0.106200935390983 
99 1    0.821388616207287  -0.0173319574631705    0.833182026050167    0.108020244001674    0.414945816991518  -0.0540613813821441 
100 1    0.820340081583936     0.15088415192804    0.658545583847399     1.19954043470346    0.333740397245431    0.576156143526367 
101 1    0.681316319526786    0.316195638218574    0.649866459178611   -0.374577369516686     1.09911348763443     1.05010022541126 
102 1    0.660934229490636     0.46501908986113    0.813368996025247   -0.271484983939547  -0.0237246485676056    0.230030522747496 
103 1    0.815367087296067    0.302284569237941    0.839941312921383     0.77617815748761    0.434462548476982   -0.838067892640269 
104 1      0.8397779123693    0.493191359434377    0.652630028355134    -0.18797790622073  -0.0373572085117668  -0.0141801381732272 
105 1     0.66224587541285    0.646415152360987    0.680284406937517    0.416814077703973    0.288103333049552   -0.435231295297419 
106 1    0.650943205642307    0.811064499124655    0.832395340425933   -0.305196237082191  -0.0660136764461422    0.707041340997242 
107 1      0.8155191268811    0.627637275740312    0.844631242614696   -0.133736393467628    0.234449462964179  -0.0944279462030644 
108 1    0.807421173306693    0.829938496796444    0.698977273167998    0.498223849267778   -0.872941607476119    -1.23324572440067 
ITEM: TIMESTEP
200
ITEM: NUMBER OF ATOMS
108
ITEM: BOX BOUNDS pp pp pp
-1.7853854686080162e-01 1.2328538546860798e+01
-1.7853854686080073e-01 1.2328538546860788e+01
-1.7853854686080073e-01 1.2328538546860788e+01
ITEM: ATOMS id type xsu ysu zsu fx fy fz 
1 1  -0.0251376677750272   0.0292699696171894  -0.0178092415754918   0.0493671045416531   -0.984536522471501    0.342408960201715 
2 1   0.0249406135952768    0.173354404389784    0.186981720456288    0.111736636484858 0.000706366484458432   -0.485850251439834 
3 1    0.142892286232154  -0.0117094825517938    0.185786087306496    0.390509894858392   -0.263186134790973   -0.322401353341297 
4 1    0.148682561256805     0.13936763720767 -0.00112078374587554     1.11928626372657    0.352526277060545    0.414116847839251 