LAMMPS (17 Nov 2016)
units metal
dimension 3
boundary p p p
atom_style atomic
read_data structure.inp
  orthogonal box = (0 0 0) to (12.15 12.15 12.15)
  1 by 1 by 1 MPI processor grid
  reading atoms ...
  108 atoms
include potential.inp
pair_style eam/alloy
pair_coeff * * Al.lammps.eam Al
fix 1 all npt temp 800 800 1.0 iso 0.0 0.0 1.0
variable  dumptime equal 100
dump 1 all custom ${dumptime} dump.out id type xsu ysu zsu fx fy fz
dump 1 all custom 100 dump.out id type xsu ysu zsu fx fy fz
dump_modify 1 sort id format line "%d %d %20.15g %20.15g %20.15g %20.15g %20.15g %20.15g"
thermo_style custom step temp pe etotal pxx pyy pzz vol
thermo_modify format  float %20.15g
thermo 100
velocity all create 1600 2986 dist gaussian
run 10000
Neighbor list info ...
  1 neighbor list requests
  update every 1 steps, delay 10 steps, check yes
  max neighbors/atom: 2000, page size: 100000
  master list distance cutoff = 8.5
  ghost atom cutoff = 8.5
  binsize = 4.25 -> bins = 3 3 3
Memory usage per processor = 3.93753 Mbytes
Step Temp PotEng TotEng Pxx Pyy Pzz Volume 
       0                 1600    -362.880858320022    -340.751521496022    -3640.94388869493    -6529.62010691698    -5898.47631396168          1793.613375 
     100     676.789226453814    -350.938782753226     -341.57822228382     -1670.0551461684    -484.201299566916     5216.57800199358     1870.91424707106 
     200     623.594205960069    -349.501023867454    -340.876194976713     -29908.570781164    -26443.2953644865    -25734.8738271858     1956.44426623354 
     300     764.169397338874    -352.042363868235    -341.473262628044     6473.18436289291     3400.82040704412     1829.48731045629     1851.47152773773 
     400     745.460581215168    -351.393528348814     -341.08318566711     19267.2090014789     22652.1702967965     26724.4764233241      1807.9501878624 
     500     597.425415012138    -349.560277131506    -341.297384483992    -5818.60430528963    -8660.96858117802    -1874.20696449393     1896.76863625633 
     600     704.788403422999    -350.833795924185    -341.085983443562    -20425.2212956022    -17196.7025971219    -16139.5780144627      1913.1458262123 
     700     730.301120638527    -351.112547835357    -341.011873159386     11391.6270253967     21791.6674926287      13082.332942056     1828.37093888119 
     800      808.71897389176    -352.060560175797     -340.87530107004     9117.19428771938     1386.82648874779     9051.51984813106     1843.12591281494 
     900     713.077309329812    -350.443215646249     -340.58076067143    -10214.7494827477     -9796.1509671411    -14357.1099113491     1902.44981532747 
    1000     730.534632345015    -350.536300298782    -340.432395960808    -5769.71029263815     286.581621236127    -5227.81749886644     1882.90461827941 
    1100     725.540853855385    -350.186035602754    -340.151199393667      14234.785820446     11506.3384983857     9688.39930485949     1841.77074093692 
    1200     820.762662195123    -351.342479192835    -339.990645815161    -595.417408087316     -2159.9276448575      -3301.443161887       1865.568899372 
    1300     719.371150838693    -349.686873907317     -339.73736984583    -5952.65166835489     48.1849298880948    -2469.65406472676     1887.38585177946 
    1400     810.933142688005    -350.799981413778    -339.584098503598    -59.0811943688126     2634.14233753311     -986.28756771319     1874.26864506652 
    1500      863.14589325714    -351.365632882835    -339.427604007748    -3080.47959039924    -1474.80157898358    -1247.34819771281     1868.91565163057 
    1600     754.910881716134    -349.747878785159    -339.306830551659      1659.3771411716     4747.96174374602    -1167.09605019522     1877.98008360601 
    1700     750.834485765719    -349.573731929254    -339.189063657639    -5282.56911136093    -4128.86649112765    -2338.17413494519     1889.22074749046 
    1800     772.020732548989    -349.783311739379    -339.105619973324     4347.52822388349     4501.04651230819     -565.57408527326     1873.22712037998 
    1900     806.058798817263    -350.164169150629    -339.015702488769     4057.11745257184     4543.55686143164     445.865456448245     1867.93598960424 
    2000     827.287102398173    -350.382980119474    -338.940908282524    -8220.96602347281    -6056.64592601073    -380.366643610052     1886.03269231636 
    2100     732.757073885688    -349.015194854246     -338.88055229288     1347.68397786193     3407.00675216121     3068.59148503097     1881.83959837791 
    2200     834.261892433396    -350.358146053829     -338.81960704315    -3327.04735561979    -2720.57327884198      -2726.295077942     1884.57554755729 
    2300     788.712346879006    -349.669230833047    -338.760680094714     8003.83743606526    -3821.78479744668    -835.807563757911     1879.10982796819 
    2400     669.862975336973    -347.997502245076    -338.732737615601     9322.06948799134    -27.3838370087395     5775.36103412436     1886.87366585043 
    2500       784.4001040693    -349.489922141121     -338.64101332379    -8706.24641185817    -10437.0977385752    -5787.45625320373     1904.94746973829 
    2600      813.57160855186    -349.864577091052    -338.612201993498     7726.51237027526      2593.1206898057      1375.8389902583     1868.05631306892 
    2700     786.600411675266    -349.415583132238    -338.536242222326     9154.46448879838     2631.08861124766     6768.32222459058     1865.68417791662 
    2800     818.330350711845    -349.756572527585    -338.438380049958    -10122.4432110682    -5105.10239850231    -5521.39890695924     1900.79751239185 
    2900      792.31904073977    -349.345480380212    -338.387046052338    -3696.25899391651    -5067.10434459187    -2990.00039014627     1896.77841979058 
    3000     764.504130296953    -348.875203709804    -338.301472833129     6927.05034088703     629.781998707399      11454.462879295     1875.40623002432 
    3100     795.912456930562    -349.238486174542    -338.230351898396      960.98985015985     -2286.8730294652     2802.09248475344     1883.68666366934 
    3200     773.712196391215    -348.852475674923    -338.151389550687    -6538.29129408753    -5673.70255152875    -1045.26779583887      1897.5052999946 
    3300     881.117470069327    -350.308681659187    -338.122090861265     133.832393436911     3056.05970625858     2178.09706783182     1873.98422327106 
    3400     807.054116412181     -349.20637728701    -338.044144551209     5629.01610887331     6044.49837109595     9970.84325009647     1868.40188989495 
    3500     798.324752636101     -348.98419690014    -337.942698558877    -9051.95686358653    -7089.11797235591    -9925.62283492037     1908.71599603142 
    3600     808.843404928502    -349.091258188632    -337.904278097673     2841.01220533332    -1312.34514605151    -5235.53585858931     1895.88310250354 
    3700     812.961911615745    -349.033610212252    -337.789667732735     8317.97569669644     5839.70360039861     11050.6650529927     1869.11596128082 
    3800     887.685008674058    -350.009515799267    -337.732090455165    -6192.00125574578    -295.530199052674    -5348.29928132069     1889.20968082489 
    3900     762.482097562764    -348.219570695738    -337.673806221215     1946.26579877817    -542.050924136092     6136.56033131399     1896.35156724226 
    4000     847.022226798493    -349.333086517068    -337.618061420669    -7611.72348461657    -2566.75337147199    -6879.25180567244     1902.69104275791 
    4100     851.987413313796    -349.345320097845    -337.561622323452     3593.39668186257       1266.691636488    -1108.48350833564      1884.3382825305 
    4200     913.220187810987    -350.138693926049    -337.508095719458    -2138.04583771431      2270.5786591846     1151.19928179392     1879.27903941265 
    4300     837.918733092253    -349.058784251659    -337.469668079323    -1763.92570067161     2550.47390376127    -4017.28608471158     1892.40030943099 
    4400     766.294079740006    -348.028836461632     -337.43034908863    -3734.29454403295     3077.59784646823    -4670.94267709815     1904.75542988203 
    4500     839.483305376985     -349.00464673023    -337.393891215973    -4767.57234702215    -4148.72989148654    -4335.08571000414     1900.60038535306 
    4600     762.619983089118    -347.900171766752    -337.352500220195      9857.4991853351     5327.88873510916      7659.8960841405     1878.01770203273 
    4700      823.56738657055    -348.747758521764    -337.357133462588    -1041.83269367062    -4031.09252537079    -383.872524070889     1899.90200495185 
    4800     798.946415798449    -348.305462051368    -337.255365589161    -7725.71108856293    -8570.81740310251    -8500.32869597427     1917.96251824925 
    4900     889.812617775529    -349.579962287358    -337.273110331733     2504.72546129771     8326.41089249756    -391.371055033372      1875.7820023224 
    5000     822.877369412013    -348.612732829249    -337.231651283896     8931.18761441567     6890.11568495932     9390.69804565113     1870.37929257647 
    5100     833.329019765312    -348.616484752324    -337.090848150074    -11799.3323715385    -12066.8494963557    -8963.99979386148     1922.79716839507 
    5200     768.930531526703    -347.781290990479    -337.146339286472    -2509.08918869187    -2601.70564315433    -1190.73636579122      1901.6083067827 
    5300     947.120911223371    -350.111260293443    -337.011786757496    -162.020216751682     10161.8841647624     8807.51444237655     1861.76478841261 
    5400     838.606352101391    -348.695417717562    -337.096791199813     3915.76364132941     414.227010074038     5227.17769485993     1885.52913360657 
    5500     817.025481928726    -348.274007131091    -336.973862078972    -6981.14165697973    -14402.9194171496    -11945.8366365136     1926.91337906292 
    5600     890.419401332238    -349.408932129321     -337.09368785013    -2078.37157711821    -5972.19094266139      1960.1436359103     1891.92418364685 
    5700      911.05512264866    -349.589260269627    -336.988606723175      11544.779962549     10225.7488698138     6857.29723052023     1861.37516178165 
    5800     827.238892847093    -348.571679414395    -337.130274355816     -7636.3760387146    -9408.30494791975    -3380.89956618823     1912.49468767438 
    5900     795.774108969255    -348.111131971209     -337.10491116296    -10384.4900618065    -9497.51747703356    -9010.18998198345     1923.47286472011 
    6000       867.7102484223    -349.191470316057    -337.190312595448     10390.8963906576      3787.8296121739     8262.24317281407     1864.04031007422 
    6100     853.213430843418    -349.097165537072    -337.296510915887     9691.74331489118     5717.39777054795     8648.68216036217     1868.71974285441 
    6200     769.610888102422    -347.933814082165    -337.289452478268    -11254.2287819698    -10848.7503757036    -12597.1268308855     1930.06353191011 
    6300     845.466999153704     -349.24349006102    -337.549975062364    -8943.09183439352    -5556.95126860669     -238.63984014966     1902.26774614031 
    6400     926.678882838527    -350.315756991647    -337.499013787884     9072.31685298174     9728.13430483856     11030.7231091624     1852.19473556342 
    6500     813.633943799379    -349.031122985272    -337.777885739162     793.403637691877    -542.438287486165     962.029588469866     1886.18536231855 
    6600     787.914185965077    -348.709258570813    -337.811747064795    -9232.94485371926    -7833.17065576118    -13592.5352047224     1918.62592120171 
    6700     783.941581192681    -348.861556534103    -338.018989471258     2377.53070879765     11056.3244708873     8975.06013553641     1875.16514830327 
    6800     944.252525268961    -351.194577982901    -338.134776621282     3282.77944689518    -2931.84842516078    -3794.78720062979     1865.10179301842 
    6900     827.389172721123      -349.7934840956    -338.350000540802     2218.22218403267     -1958.5440646685     202.250210218138     1880.95646998946 
    7000     765.982651716642    -349.102000708481    -338.507820645245    -5665.00437954831    -8932.18427829807    -4860.46184508384     1904.66783789515 
    7100     720.364761955149    -348.754899175332    -338.791652641928     695.128635128412     3825.92317722284     6626.59458268836     1875.55637849274 
    7200     928.123084217321    -351.723137508623    -338.886419793139     909.405789458616     4695.25978365011     4571.41873179616     1858.42873607994 
    7300     736.603750272568    -349.303634881613    -339.115789571861     699.009741363161    -1179.96139734122    -4916.07549159107     1891.47196203049 
    7400     755.145972819645    -349.661595385735    -339.217295645852    -9640.62559158324    -10500.6527169396    -7638.04056767472     1908.81161646276 
    7500     772.579443931194    -350.132249128724    -339.446829917442     4684.33157426889     5795.80938586645      4517.8131131691     1863.66270364106 
    7600     785.736932093384    -350.405257875822    -339.537859609978     12709.4971385288       3522.068671111     12068.4172012107     1852.64814344888 
    7700      758.70530315965    -350.166363520596    -339.672835268236    -4169.24840821344    -6337.93875616046    -4447.59316716856     1893.62771467272 
    7800     756.097623352967    -350.245176775455    -339.787714913578    -6387.56200421813    -7599.97959758145    -8105.66530916907     1891.98822454472 
    7900     745.857012041067    -350.200789612995    -339.884963961746     9841.21501824237     8882.06253153207     11277.1569807375     1848.91964922011 
    8000     819.346062629025    -351.325674034444    -339.993433412359    -4354.16189177853    -1829.01599792417     2094.52412537806     1864.22724373308 
    8100     706.181387845414    -349.798509947388    -340.031431328344     377.084210787968      -3481.889544899    -349.293076722182     1881.16875729329 
    8200     712.821769733209    -349.945144169153    -340.086223520462     82.2936655348422     828.427630863875     2049.36860708881     1876.39664227471 
    8300     752.731049905422    -350.532432846303    -340.121533508028     5077.29202845957    -3259.50117566128     4532.81174560807     1868.12390208278 
    8400     668.509364146334    -349.398668951105     -340.15262589536     6964.08257407699     4089.41437523507     5526.23261865016     1862.31697031045 
    8500     776.861746825696    -350.920338215228    -340.175691176986    -2403.52731991922    -708.903983409506    -1113.21035724506     1872.04276222069 
    8600     772.851499531945    -350.875191689396    -340.186009721849     -4493.3433651131    -3161.65069611095    -1630.28855436339     1877.08031645555 
    8700      740.74871879268    -350.430439542821    -340.185265855253    -1781.58972176131     4997.68203567566     2313.71877625845     1869.68472287828 
    8800     684.264309959447     -349.63382885409    -340.169881734256     3355.31452347858     3418.12212096597      5411.6860951123      1868.3086304707 
    8900     746.162813955937    -350.464347242387    -340.144292095153     722.064349037934     4822.11933988858    -6121.57035054723     1875.03264573804 
    9000     730.901777964096     -350.20832018419    -340.099337915548    -3018.71821243394     4052.25969576473    -4100.10496012397     1879.19867791027 
    9100     731.305459791486    -350.150935600529    -340.036370074931     517.066760023268     1689.85270632298    -1124.54336686771      1871.8753727251 
    9200     790.269633640635    -350.879632589527    -339.949543274144    -418.791981928802     7782.94718195135    -5847.65244015716     1862.25149958367 
    9300     751.024550367338    -350.235785015337     -339.84848799148     3641.92525191366      10427.283068418     2436.05893502519     1860.12630394407 
    9400     755.297710106208    -350.203333172526    -339.756934779191    -9050.41520701295    -95.9307517048121    -8244.49789128562     1889.84265898752 
    9500     785.179660124517    -350.483280173611    -339.623589444706    -328.912806789345    -8185.56733843194    -4540.90711475474     1885.79767058135 
    9600     763.515865896092    -349.943928172522     -339.38386581822     15905.5811298915     7398.41887371462     3303.94573702079      1859.4118929221 
    9700     730.800287843946    -349.278623334783    -339.171044759299    -351.937826108922    -3589.51244033921    -949.465065344883     1885.26966010863 
    9800     798.477483869264    -349.940604884635    -338.896994142808    -1694.56043629533     -4721.5786826731    -3933.34034407744     1893.85917834237 
    9900     752.433352862245     -349.01958029614    -338.612798356702    -58.0676595016352     7595.60591845613     1339.11051976306     1881.49275471354 
   10000      873.38728276726    -350.377261003381    -338.297585154535    -3838.25624644328    -6877.72563006339     628.603107044662     1881.85950154678 
Loop time of 2.68342 on 1 procs for 10000 steps with 108 atoms

Performance: 321.977 ns/day, 0.075 hours/ns, 3726.584 timesteps/s
99.8% CPU use with 1 MPI tasks x no OpenMP threads

MPI task timing breakdown:
Section |  min time  |  avg time  |  max time  |%varavg| %total
---------------------------------------------------------------
Pair    | 2.4692     | 2.4692     | 2.4692     |   0.0 | 92.02
Neigh   | 0.035822   | 0.035822   | 0.035822   |   0.0 |  1.33
Comm    | 0.068475   | 0.068475   | 0.068475   |   0.0 |  2.55
Output  | 0.032891   | 0.032891   | 0.032891   |   0.0 |  1.23
Modify  | 0.060018   | 0.060018   | 0.060018   |   0.0 |  2.24
Other   |            | 0.017      |            |       |  0.63

Nlocal:    108 ave 108 max 108 min
Histogram: 1 0 0 0 0 0 0 0 0 0
Nghost:    1523 ave 1523 max 1523 min
Histogram: 1 0 0 0 0 0 0 0 0 0
Neighs:    7907 ave 7907 max 7907 min
Histogram: 1 0 0 0 0 0 0 0 0 0

Total # of neighbors = 7907
Ave neighs/atom = 73.213
Neighbor list builds = 122
Dangerous builds = 0
Total wall time: 0:00:02
