ITEM: TIMESTEP
0
ITEM: NUMBER OF ATOMS
108
ITEM: BOX BOUNDS pp pp pp
0.0000000000000000e+00 1.2150000000000000e+01
0.0000000000000000e+00 1.2149999999999990e+01
0.0000000000000000e+00 1.2149999999999990e+01
ITEM: ATOMS id type xsu ysu zsu fx fy fz 
1 1                    0                    0                    0 1.90819582357449e-16 1.98834004816462e-14 1.97836538817775e-14 
2 1                    0    0.166666666666629    0.166666666666629 5.23886489744996e-16 9.26342336171615e-16  8.6389229103645e-16 
3 1    0.166666666666629                    0    0.166666666666629  1.0547118733939e-15 2.00013616780126e-14 6.69603261727048e-16 
4 1    0.166666666666629    0.166666666666629                    0 1.04777297948999e-15 1.79630615937398e-15 2.02893257750247e-14 
5 1                    0    0.333333333333371                    0 2.51534904016637e-16 -4.6898249173033e-15 1.89639970393785e-14 
6 1                    0                  0.5    0.166666666666629 1.38777878078145e-17 4.36196218034368e-15 1.06512021424976e-15 
7 1    0.166666666666629    0.333333333333371    0.166666666666629 8.67361737988404e-18 -5.04631059161653e-15 6.99960922556642e-16 
8 1    0.166666666666629                  0.5                    0 1.64451785522601e-15 5.44009282066327e-15 2.05959381494036e-14 
9 1                    0    0.666666666666629                    0 -1.73472347597681e-16 -1.97758476261356e-16 2.01609562378025e-14 
10 1                    0    0.833333333333371    0.166666666666629 -4.5102810375397e-15 -1.9970136655445e-14 1.17614251671228e-15 
11 1    0.166666666666629    0.666666666666629    0.166666666666629 2.17187379192296e-15 -7.45063732932039e-16 1.30104260698261e-16 
12 1    0.166666666666629    0.833333333333371                    0  2.8345381597461e-15  -1.929532922329e-14 1.94592605917698e-14 
13 1    0.333333333333371                    0                    0 -8.15320033709099e-16 1.97081934105725e-14 1.96279624498086e-14 
14 1    0.333333333333371    0.166666666666629    0.166666666666629 -1.53696499971545e-15 8.80155323623732e-16 8.09031661108683e-16 
15 1                  0.5                    0    0.166666666666629 1.37216626949765e-15 2.03513421392909e-14 5.79397640976254e-16 
16 1                  0.5    0.166666666666629                    0 1.47017814589034e-15 1.76941794549634e-15 2.07017562814382e-14 
17 1    0.333333333333371    0.333333333333371                    0 -3.33066907387547e-16 -4.99730465342019e-15  1.9630347694588e-14 
18 1    0.333333333333371                  0.5    0.166666666666629 -5.23886489744996e-16 4.73845632362328e-15 1.16876994193937e-16 
19 1                  0.5    0.333333333333371    0.166666666666629 1.20795714702816e-15 -5.00988139862102e-15 8.03827490680753e-16 
20 1                  0.5                  0.5                    0 2.22738494315422e-15 4.45650460978442e-15 2.10964058722229e-14 
21 1    0.333333333333371    0.666666666666629                    0 -1.41553435639707e-15 4.72928987638177e-16 2.03153466271644e-14 
22 1    0.333333333333371    0.833333333333371    0.166666666666629 -1.72084568816899e-15 -1.9560958755549e-14 4.29127219869763e-16 
23 1                  0.5    0.666666666666629    0.166666666666629 -9.80425210131616e-16 -1.43461631463282e-15 8.44810332800705e-16 
24 1                  0.5    0.833333333333371                    0 -1.13624387676481e-15 -1.93838001205648e-14 2.10276674544874e-14 
25 1    0.666666666666629                    0                    0 1.49880108324396e-15 2.08132122647697e-14  2.0719537197067e-14 
26 1    0.666666666666629    0.166666666666629    0.166666666666629 -3.64291929955129e-16 9.40220123979429e-16 8.49147141490647e-16 
27 1    0.833333333333371                    0    0.166666666666629 7.59808882477842e-16 1.93768612266609e-14 7.35522753814166e-16 
28 1    0.833333333333371    0.166666666666629                    0 7.84095011141517e-16 1.85962356624714e-15 1.96561517062932e-14 
29 1    0.666666666666629    0.333333333333371                    0 5.51642065360625e-16 -4.38581462813836e-15 2.00742200640036e-14 
30 1    0.666666666666629                  0.5    0.166666666666629 7.97972798949331e-17 3.96210841913103e-15 9.99200722162641e-16 
31 1    0.833333333333371    0.333333333333371    0.166666666666629  4.8919202022546e-16 -4.69416172599324e-15 7.91033905045424e-16 
32 1    0.833333333333371                  0.5                    0 1.00613961606655e-16 4.73666245115467e-15 1.99978922310606e-14 
33 1    0.666666666666629    0.666666666666629                    0 1.75900960464048e-15 -4.60569082871842e-16 2.12815876032835e-14 
34 1    0.666666666666629    0.833333333333371    0.166666666666629 1.12323345069498e-15 -1.85112342121485e-14 7.81492925927552e-16 
35 1    0.833333333333371    0.666666666666629    0.166666666666629 1.36696209906972e-15 -2.42861286636753e-16 2.08860706507608e-15 
36 1    0.833333333333371    0.833333333333371                    0 5.56846235788555e-16 -1.91825721973515e-14  2.0344836926256e-14 
37 1                    0                    0    0.333333333333371 2.46330733588707e-16 1.97871233287295e-14 -5.31172328344098e-15 
38 1                    0    0.166666666666629                  0.5 -3.81639164714898e-17  1.7728873924483e-15 4.93702301262999e-15 
39 1    0.166666666666629                    0                  0.5 1.56819002228303e-15 2.01522826204226e-14  5.5198901005582e-15 
40 1    0.166666666666629    0.166666666666629    0.333333333333371 -3.46944695195361e-17 6.66133814775094e-16 -4.92661467177413e-15 
41 1                    0    0.333333333333371    0.333333333333371 3.22658566531686e-16 -4.65079363909382e-15 -4.72798883377479e-15 
42 1                    0                  0.5                  0.5 -3.61516372393567e-15 5.82259934711615e-15 4.71150896075301e-15 
43 1    0.166666666666629    0.333333333333371                  0.5 -1.45022882591661e-15 -4.69763117294519e-15 5.00554458993108e-15 
44 1    0.166666666666629                  0.5    0.333333333333371 -1.37737043992558e-15 4.75636447391631e-15 -4.91794105439425e-15 
45 1                    0    0.666666666666629    0.333333333333371 -4.12517242587285e-15 -9.12464548363801e-16 -4.74620343027254e-15 
46 1                    0    0.833333333333371                  0.5 -4.00027233560252e-15 -2.13110779023751e-14 5.65693325516037e-15 
47 1    0.166666666666629    0.666666666666629                  0.5 2.70616862252382e-16 -4.44089209850063e-16 4.52589354882349e-15 
48 1    0.166666666666629    0.833333333333371    0.333333333333371 -1.08376849161651e-15 -1.96648253236731e-14 -5.49213452494257e-15 
49 1    0.333333333333371                    0    0.333333333333371 -3.43475248243408e-16 2.03702072570922e-14 -5.80330054844591e-15 
50 1    0.333333333333371    0.166666666666629                  0.5 -5.48172618408671e-16 9.84238732182341e-16 5.41428880895811e-15 
51 1                  0.5                    0                  0.5 2.29677388219329e-15   2.053066917862e-14 4.61262972262233e-15 
52 1                  0.5    0.166666666666629    0.333333333333371 1.23456219936222e-15 9.08995101411847e-16 -4.73579508941668e-15 
53 1    0.333333333333371    0.333333333333371    0.333333333333371 -7.80625564189563e-16 -5.23886489744996e-15 -5.54417622922188e-15 
54 1    0.333333333333371                  0.5                  0.5 7.21644966006352e-16 5.61114946670388e-15 4.43915737502465e-15 
55 1                  0.5    0.333333333333371                  0.5 1.62977270568021e-15 -4.30905311432639e-15 4.39470508595274e-15 
56 1                  0.5                  0.5    0.333333333333371 1.63324215263216e-15 4.12820819195581e-15 -4.46170878021235e-15 
57 1    0.333333333333371    0.666666666666629    0.333333333333371 -4.19803081186387e-16 -5.88288098790635e-16 -4.92704835264313e-15 
58 1    0.333333333333371    0.833333333333371                  0.5 -6.17561557447743e-16 -2.02977825519701e-14 5.47261888583783e-15 
59 1                  0.5    0.666666666666629                  0.5 -4.10262102068515e-16 -1.28022592527088e-15 3.83482308408123e-15 
60 1                  0.5    0.833333333333371    0.333333333333371 -1.46887710328336e-15 -1.97543804231204e-14 -5.45050116151913e-15 
61 1    0.666666666666629                    0    0.333333333333371 6.26235174827627e-16 2.08617845220971e-14 -5.2054714705374e-15 
62 1    0.666666666666629    0.166666666666629                  0.5  4.5102810375397e-17 1.79370407416002e-15 4.59181304091061e-15 
63 1    0.833333333333371                    0                  0.5  1.6306400674182e-16 1.95642113620664e-14 4.85462364752109e-15 
64 1    0.833333333333371    0.166666666666629    0.333333333333371 5.22151766269019e-16 8.37871438896798e-16 -4.46170878021235e-15 
65 1    0.666666666666629    0.333333333333371    0.333333333333371 -3.22658566531686e-16 -4.56926163572291e-15 -4.68678915122034e-15 
66 1    0.666666666666629                  0.5                  0.5  7.0082828429463e-16 4.73926453636864e-15 3.60822483003176e-15 
67 1    0.833333333333371    0.333333333333371                  0.5 1.43114686768087e-15 -3.69235891861663e-15 5.83040560275805e-15 
68 1    0.833333333333371                  0.5    0.333333333333371 1.33313499128818e-15 5.57540125178946e-15 -3.70189989773451e-15 
69 1    0.666666666666629    0.666666666666629    0.333333333333371 1.26548077572508e-15 -1.57252683097298e-15 -4.31252256127834e-15 
70 1    0.666666666666629    0.833333333333371                  0.5 1.96023752785379e-15 -1.97819191583015e-14 4.49466852625591e-15 
71 1    0.833333333333371    0.666666666666629                  0.5 2.76167977375508e-15 -1.0772632785816e-15 4.41140179940902e-15 
72 1    0.833333333333371    0.833333333333371    0.333333333333371 1.69092170820839e-15 -2.05929023833207e-14 -5.38371430769402e-15 
73 1                    0                    0    0.666666666666629 -1.59594559789866e-16 1.88174129056584e-14 -9.78384040450919e-16 
74 1                    0    0.166666666666629    0.833333333333371 -4.81212292235966e-15 3.81118747672105e-15 -2.06380051936961e-14 
75 1    0.166666666666629                    0    0.833333333333371 3.10515502199848e-15 1.54286305953377e-14 -2.02754479872169e-14 
76 1    0.166666666666629    0.166666666666629    0.666666666666629 1.80411241501588e-15 2.07819872422021e-15 -4.32813507256213e-16 
77 1                    0    0.333333333333371    0.666666666666629 -4.03843625207401e-15 -7.41767758327683e-15 -2.63677968348475e-16 
78 1                    0                  0.5    0.833333333333371 -3.46597750500166e-15 2.03222855210683e-15 -2.08236206056256e-14 
79 1    0.166666666666629    0.333333333333371    0.833333333333371 -9.61036805691151e-16 -6.62143950780347e-15  -2.034310220278e-14 
80 1    0.166666666666629                  0.5    0.666666666666629 8.32667268468867e-17 3.10342029852251e-15 -1.0096090630185e-15 
81 1                    0    0.666666666666629    0.666666666666629 -4.23966417528732e-15 5.06539254985228e-16 -1.20042864537595e-15 
82 1                    0    0.833333333333371    0.833333333333371 -4.54497550705923e-15 -1.89700685715444e-14 -2.08279574143155e-14 
83 1    0.166666666666629    0.666666666666629    0.833333333333371 1.11889664200504e-15 8.77770078844264e-16 -1.87697080100691e-14 
84 1    0.166666666666629    0.833333333333371    0.666666666666629  1.0547118733939e-15 -1.86448079197987e-14 1.05818132034585e-16 
85 1    0.333333333333371                    0    0.666666666666629 -1.38430933382949e-15 1.89319046550729e-14 -2.38307637512314e-16 
86 1    0.333333333333371    0.166666666666629    0.833333333333371 -1.75900960464048e-15 2.46721046370801e-15 -2.01455605669532e-14 
87 1                  0.5                    0    0.833333333333371 -1.13797860024079e-15 1.70453928749481e-14 -2.03257549680202e-14 
88 1                  0.5    0.166666666666629    0.666666666666629 -9.81075731435107e-16  2.4980018054066e-15 -1.0547118733939e-15 
89 1    0.333333333333371    0.333333333333371    0.666666666666629 -2.53269627492614e-16 -7.17698470098505e-15 1.75857592377149e-16 
90 1    0.333333333333371                  0.5    0.833333333333371 -5.20417042793042e-16 2.35250187385905e-15 -1.98628006403689e-14 
91 1                  0.5    0.333333333333371    0.833333333333371 -1.36089056690381e-15 -6.8660355179162e-15 -2.04363435896138e-14 
92 1                  0.5                  0.5    0.666666666666629 -4.16333634234434e-16 2.08492077768963e-15 -1.93855348440408e-15 
93 1    0.333333333333371    0.666666666666629    0.666666666666629 -2.23779328401008e-15 1.01676479735691e-15 -7.14489231667947e-16 
94 1    0.333333333333371    0.833333333333371    0.833333333333371 -3.6498581934552e-15 -1.81944303373482e-14 -2.01282133321934e-14 
95 1                  0.5    0.666666666666629    0.833333333333371 -3.73399228204008e-15 3.10515502199848e-16 -1.89861147636972e-14 
96 1                  0.5    0.833333333333371    0.666666666666629 -3.59521440396193e-15 -1.86829718362702e-14 -6.80011602582908e-16 
97 1    0.666666666666629                    0    0.666666666666629 1.66533453693773e-15 1.99024824398819e-14 -1.24119464706141e-15 
98 1    0.666666666666629    0.166666666666629    0.833333333333371 1.30017524524462e-15 3.08867514897671e-15 -1.90784887887929e-14 
99 1    0.833333333333371                    0    0.833333333333371  9.9399655173471e-16 1.66932440093248e-14 -2.00811589579075e-14 
100 1    0.833333333333371    0.166666666666629    0.666666666666629 1.37737043992558e-15 4.13558076672871e-15 8.67361737988404e-17 
101 1    0.666666666666629    0.333333333333371    0.666666666666629 1.52221985016965e-15 -6.85658414456855e-15 -9.79251402188908e-16 
102 1    0.666666666666629                  0.5    0.833333333333371 2.25340579529387e-15 1.19175502799607e-15 -1.92801503928752e-14 
103 1    0.833333333333371    0.333333333333371    0.833333333333371 1.64842098304696e-15 -7.12711140105071e-15 -2.1242556325074e-14 
104 1    0.833333333333371                  0.5    0.666666666666629 2.32452945780892e-15 2.97505076130022e-15 -1.75207071073658e-15 
105 1    0.666666666666629    0.666666666666629    0.666666666666629  2.9247437804969e-15 -5.64652491430451e-16 -2.19962936753859e-15 
106 1    0.666666666666629    0.833333333333371    0.833333333333371 3.00193897517786e-15 -1.81599527082632e-14 -1.95485988507826e-14 
107 1    0.833333333333371    0.666666666666629    0.833333333333371 1.59421087442269e-15 7.59808882477842e-16 -2.00672811700997e-14 
108 1    0.833333333333371    0.833333333333371    0.666666666666629 2.06605565988838e-15 -1.98400323947467e-14 -4.54497550705923e-16 
ITEM: TIMESTEP
100
ITEM: NUMBER OF ATOMS
108
ITEM: BOX BOUNDS pp pp pp
-4.3534345393251073e-02 1.2193534345393264e+01
-4.3534345393251073e-02 1.2193534345393253e+01
-4.3534345393251073e-02 1.2193534345393253e+01
ITEM: ATOMS id type xsu ysu zsu fx fy fz 
1 1 -0.00775975447788824 -0.00430688624413733 -0.00373595575609897    0.350543442122042    0.361693178970518  -0.0769423925800189 
2 1  0.00501505116199041    0.167193460943622    0.190358829319962   0.0620171297457308   -0.079339615858433   -0.439253151257666 
3 1     0.17310716760494   0.0195558032064582    0.179034758787679 -0.00756149074088991   -0.341835865961281   -0.162108225556615 
4 1    0.178035704649233    0.171309158686313  -0.0020039765661295   -0.561244969237822   -0.440738520054526    0.155095394226672 
5 1  0.00800238585156876     0.33205363657396   0.0235030501016809   -0.229988813762339   -0.282081568967273   -0.388728588603638 
6 1 -0.00349905576024412    0.503498049701648      0.1638011858862    0.238144805881225   0.0891310767099236   0.0250432530806286 
7 1    0.174368909422014    0.321386384223956    0.166994059282501    0.170565500580719    0.270447708628294    0.328516186952228 
8 1    0.181411707816324    0.483335467173902  0.00308252253785213   -0.488202401229717    0.477558884501798    0.193896734995545 
9 1 -0.00365708750780414    0.678750083442196   0.0146930150813205    0.290858077430062   -0.492548606066076   -0.294394067024664 
10 1 -0.00429717079913416     0.84812475232377    0.157188498853429    0.465217548667651   -0.319555566665937    0.643081188568669 
11 1    0.172685693959238    0.682942572951788     0.16019312479068 -0.00188295669104629   -0.321485390872925    0.114903429035674 
12 1    0.174355112376816    0.832633273956958 -0.00464566003802247  -0.0710632606369937     0.28513280516458  -0.0489960603020055 
13 1    0.319419152215914  0.00455101149509574 -0.00993723493587595    0.655512979732403   -0.127210858707757   0.0788824122757684 
14 1     0.35565704227281    0.153085483447967    0.165203240743381    -0.31964164675732    0.211339871545475    0.165884430706038 
15 1    0.530808021930056   0.0109642962966063    0.171413085556878   -0.658714455366447   -0.312819360211133  -0.0103148913123346 
16 1     0.51248874087014    0.166696490809272  0.00316232731438504   0.0408580066393611   -0.209954829644444  -0.0521390848316714 
17 1    0.337954577442929    0.321578895922812 0.000958873119316195    0.236700078937056    0.201980713777343   0.0426220031837586 
18 1    0.334903408595892    0.507717485755052    0.165263215483492   -0.178796825161804   -0.117199037079787   -0.314446070969031 
19 1    0.500463016973981     0.33295466949528    0.171013641396144    0.497325151897292   -0.109497639542463   -0.441065977226442 
20 1    0.495839260815728    0.495934813817939 -0.00649280605614422   0.0646065455274977  -0.0631020936170375    0.345922215774429 
21 1    0.336756744655645    0.670314569399011 -0.000959175691093606    0.146095312722002   0.0669363682040773    0.176135435941596 
22 1    0.344770576066594    0.849873038887608    0.159166512992101   -0.184703027455019   0.0533808907174167     0.26777559850409 
23 1    0.511893302576141    0.694404852354523    0.151810476142828   -0.587631078282465   -0.965921542695043    0.771801776818409 
24 1     0.51351862545016     0.84552294548746  0.00240433544217922    -0.54918371090372    0.453261885875851   -0.730231326400281 
25 1    0.684336720008332 -0.000187836494944804  -0.0149389862344265   -0.352116014689662    0.146909238385008    0.279531665979409 
26 1    0.695160515941893    0.151206867714336    0.171035578172336    -1.00027255291138    0.912252536368796   0.0585175107195106 
27 1    0.844630317903579  0.00964204730360052    0.171286577385104   0.0489707755386145   -0.723200829510519  0.00488952962064739 
28 1    0.840228748206073    0.171010919246555   0.0109903143337533    0.409055060382652   -0.268491180820769   -0.676376804137062 
29 1    0.682145062197947    0.327220260806257  0.00271068972540434   -0.866142191967412  -0.0112315683728684    0.470816265298206 
30 1    0.658477181109561    0.502881048216523     0.16253883333809    0.332138693042554  -0.0639035015209586   -0.125611559215327 
31 1    0.846005836927475    0.322998654969524    0.177382572193096     -0.6836380974589    0.614992258987959   -0.233142024950357 
32 1    0.838504226076338     0.48740864414799  0.00143704330992023   -0.573790043767023    0.540494330455162    0.822948939299494 
33 1    0.659215069376046    0.669561417145019 -0.00715141777487815    0.153727539782603   -0.150512736999485     0.12601424805222 
34 1    0.668276708251369    0.843245707838832    0.158182393095217    0.538813456021788   0.0695500205172816    0.492489144763591 
35 1     0.82630226473043    0.677731042745449    0.165539617215813   0.0476662082723004   -0.469356454602638  -0.0286865587809952 
36 1    0.834283697388969    0.833998607772742  0.00810910469635928   -0.179944512522886    0.232233730650427   -0.481735164253181 
37 1 -0.00860974469554776 -0.00862751404383744    0.338604660194278    0.254691998615611    0.243675744052055    0.301889242429714 
38 1 -0.00249780361434659    0.161989819542782    0.512045329202238  -0.0250420842238775    0.117912126893243   -0.369525681853485 
39 1     0.17087413348986 -0.00512365335828235    0.499501185802728   -0.527145104834706   0.0598530493412534    -0.57895609003069 
40 1    0.165699020365423    0.181590350920033    0.345361623750705   0.0472708237928971   -0.249388855418894   0.0277697910731954 
41 1  -0.0042739522959323    0.345322267513211    0.332556896336541    0.414084444248128  -0.0551595227984874    0.412906582389652 
42 1  -0.0134829142448893    0.506268700731425     0.49748539039183    0.517240373708565   -0.164832870287183     0.34188004952186 
43 1    0.163784813919165    0.349135540550037    0.502677672642449   -0.268936590628771   -0.199160164512939  -0.0556664735450042 
44 1    0.166260303069294    0.516305221340303    0.324681901657868   0.0495646068267944   -0.759271422766911    -0.20649803301629 
45 1  0.00196467409557499    0.660968774983871    0.324504580082248   -0.213695106314047    0.564341764496986   -0.291075580734886 
46 1  -0.0035651275313171    0.813137202029111    0.491901029561291   -0.145242817631375    0.539730760604757    0.196663872170853 
47 1    0.146600168917189    0.657739601814342     0.49180128235696    0.760280230102096   0.0312030692531764    0.310542377409762 
48 1     0.16303523953377    0.839389487259723    0.323242719717314    0.159667442823654  -0.0187693916802852    0.171178247684708 
49 1    0.347024774153851  0.00312635127579597     0.34730037859822   -0.239474316706582   0.0177748596092303   -0.246320381180623 
50 1     0.33065264473089    0.183734691073482    0.494881552736047   0.0876277865079905   -0.170962425909933  -0.0695764010213684 
51 1    0.507291383805523   0.0105098398739756    0.510888039320434   -0.216570529959262   -0.296061182170385   -0.399233384072087 
52 1    0.517128618974994    0.164992354988044    0.337378156599243   -0.411438067602996   0.0650905817296472   -0.226212303376006 
53 1    0.346637793091418    0.337972559123841    0.320798049198061   -0.588897238339616   -0.173001690194233    0.420729721582049 
54 1    0.323618556838483    0.501670550243716    0.489596611575962    0.316673329460452   -0.136395592413908   0.0651723323329629 
55 1    0.507402883979466    0.339954179030087    0.486487063415439   -0.438148621286118    0.272862848725014    0.213398613701358 
56 1    0.493015523886129    0.510555478757738     0.31184055056849    0.395821680458353   0.0363358122624463    0.664109658881465 
57 1    0.329907754673059    0.668258426856255     0.33115734803846    0.134974243757772    0.276007006545343   -0.255012386511282 
58 1    0.329088138214502    0.821684453532839    0.492039837923357    -0.34017175896135    0.206400676081183   -0.201007186953704 
59 1    0.493874577486622    0.661643250570364    0.498310284705326   0.0782608306984428  -0.0334980288451983  -0.0651012517020836 
60 1    0.508647497719494    0.841179554236874    0.346977276444363   -0.213892937185638  -0.0493657827813332   -0.431001914649017 
61 1    0.680287712219979  0.00062704779577416    0.351437845945725   -0.147202897973462  -0.0155592816536794   -0.393174233985377 
62 1    0.661746862168798    0.173952563323269    0.503308148938345    0.612350702239403   -0.190639156825778    0.338930829830422 
63 1     0.82886847485031  -0.0198465387264264    0.513758641606273    0.393451968800827    0.462557794488837  -0.0316969343243561 
64 1    0.835293455679334    0.174414166895076    0.341381207757877    0.249260151588248   -0.344314558586082    0.597994272918812 
65 1    0.674363852059287      0.3273504571888     0.34303554281405   0.0830484481446253    0.540963782233008   -0.603856515560772 
66 1    0.662845699633294    0.508589793162173    0.491690512323657   -0.110781361299911   -0.087833400067809     0.11802056922742 
67 1     0.82912257752173     0.35382565037537    0.512057648196787  -0.0483123743916403   -0.441379628835506   -0.437066858976205 
68 1    0.837918575511708    0.515783378160336    0.333772763685943   -0.524974176645426   -0.689003187128935   -0.612934778751177 
69 1    0.661805446357789    0.669370822191581    0.327428500005453   0.0107695361237577   0.0701590003542651   0.0260724590877914 
70 1    0.665607251870711    0.832337172095322    0.502421032566758   -0.107433795744592   -0.464051916669173    0.248481264936987 
71 1    0.828337376886111    0.656363769926884    0.493247718698967   -0.128419604128523     0.61716136433977     0.55233964373496 
72 1    0.832657658885182    0.827269555393855    0.335205809851345  -0.0787109420076118    0.116429703954255  -0.0930465443298801 
73 1  0.00638487922992681   -0.013744439297227     0.65941066204357   -0.216474760259251    0.010536923305883   0.0910980870358666 
74 1   -0.012236324339824    0.139537982416073     0.82719421892557    0.338229294832369    0.766512099926665   0.0917577448278371 
75 1    0.171560669486325  0.00673245707889691    0.825251856852219   -0.157551625107717   -0.392643000491074   0.0104994187608977 
76 1    0.168387024731715    0.160636785132283    0.660979088082513   -0.335905493437222    0.316671274073366  -0.0399286701953318 
77 1  -0.0115476007594566    0.341369474571366    0.659965872538578    0.305494212742679   -0.250491148540134    0.473392727520608 
78 1  -0.0135953087141729    0.487667284193094    0.855040633549834    0.836750839094498    0.432506273555833   -0.522290943468574 
79 1    0.140464129679913    0.324643105946166    0.845655077319407    0.366767612298926   -0.208012005794149   -0.452519214526562 
80 1    0.169466855846053    0.485173171538236    0.695630829154766   -0.916052197878172    0.357551750954025   -0.772224467064921 
81 1 -0.00211281967023069    0.666287997033919    0.679808751088899    0.162047204119424   -0.369238861923354  -0.0214472468422609 
82 1  0.00817283754304299    0.828249663377164    0.840143744973147  -0.0751325788474491    0.034381630737399   -0.213816255260308 
83 1    0.182620032758336     0.66102856126372     0.83953936419789    -0.90277401402927    0.222610271999679  0.00670607889563124 
84 1    0.160092469594019    0.819482819919017    0.652204263192857   0.0443128318415919     0.21078991069013    0.198663329533766 
85 1    0.325164373296275 -0.000123152180606212    0.642938834172242    0.367060866664178   0.0678995496064199    0.637769746525338 
86 1    0.331165218189426     0.17073217279858    0.818933059115238   -0.219188472123093   0.0333177170183217    0.409607824123818 
87 1    0.486279157803779   0.0188679482140515    0.819327594775928   0.0665006917473652   -0.577643935924221    0.212099225761815 
88 1    0.492305356995985    0.184215960899792    0.652369611258678    0.160759372684916   -0.155379155612216    0.442952219400824 
89 1    0.318946389144003    0.331874189353243    0.670741302349711    0.467011069588151    0.227770690821317    -0.19456178138873 
90 1    0.324021040575076    0.498817641560663    0.837022041734031    0.984325893119263   -0.492364212793084     0.17902236963796 
91 1    0.502805134088248    0.321130611888179    0.842363712486872   0.0165637272017723    0.334632875073631   -0.362233106745853 
92 1    0.506421186779903    0.497305233106317     0.66330556647074   -0.580946631621244  -0.0270659869404371   0.0413968421997511 
93 1    0.314060313645541    0.652777623026054    0.652187349781116    0.387505927826108  -0.0501623989031915    0.147965952448379 
94 1    0.327236649989686    0.823324845929164    0.798731758215467   -0.207959086708627    0.432678154750405     1.05194570853424 
95 1    0.491825255616277    0.656956785351895    0.836101387292501  -0.0204344198336241    0.262947687099592    -0.27422413836903 
96 1    0.474018154967212    0.829479418403139    0.652125627511509     1.12376626259826  -0.0433552130811823   0.0405408889108135 
97 1    0.651325548171599  -0.0143888703844368    0.674147358994105    0.453675836379146    0.294481070656494   -0.239980076205868 
98 1    0.663237544306185    0.157562347425483     0.82686348399443    0.246528219791814    0.319334526778546   -0.102466303171451 
99 1    0.833808474259399  -0.0162325308783693     0.82013462089526   -0.091004913040754   -0.108641296354076  -0.0374355285290523 
100 1    0.832354577830756     0.15639429948601    0.666350779404297   -0.211830681832816    0.207609918222799  -0.0943778248968877 
101 1    0.663166119261859    0.344278121218281    0.657861691578205    0.141799771264097   -0.313467554100682    0.454427326618762 
102 1    0.662955955929533    0.492861084704032    0.838986994280845    -0.16186528154613    0.196408919353277 -0.00683771821934981 
103 1    0.822759419823683    0.336158522625055    0.844354873846783    0.452277210594549   -0.693763044275174   -0.780307094938564 
104 1    0.834977711619672    0.507694631209802    0.691183514581326    -0.17300097269151   0.0794640347214574   -0.491223271418487 
105 1    0.654549869380048    0.662166972400655    0.678374841340087     0.26038788317231   0.0424421577134145   -0.361354029490244 
106 1    0.654449921042328    0.828715245328226    0.825572399120688    0.105206996290011  -0.0276596366742947    0.221020280990057 
107 1    0.832529208234973    0.670113202742868    0.857842362876681     0.11101451392658    -0.12984796978747    -0.60978478149979 
108 1    0.833239189174719    0.812045814450585    0.661997815548716   -0.172711644233951    0.172067367029714    0.364434669769935 
ITEM: TIMESTEP
200
ITEM: NUMBER OF ATOMS
108
ITEM: BOX BOUNDS pp pp pp
-9.4014807935041134e-03 1.2159401480793523e+01
-9.4014807935041134e-03 1.2159401480793512e+01
-9.4014807935041134e-03 1.2159401480793512e+01
ITEM: ATOMS id type xsu ysu zsu fx fy fz 
1 1  0.00756319523543425 -0.00763311443841985  0.00317690320412112   -0.815937813002614    0.299456115836115   -0.367217186476724 
2 1   -0.011507035008492     0.16607375971148    0.158900246534813    0.240820163239867   0.0735120042165344    0.111768054774446 
3 1    0.165379468380706 -0.00873387519237667    0.160352467776306   -0.163176706332643    0.613070649343586    0.792635890384687 
4 1    0.160747228425748    0.156760035301659  0.00931326149566303 -0.00109168614273081    0.372411058911013   -0.696858589095636 