LAMMPS (17 Nov 2016)
units metal
dimension 3
boundary p p p
atom_style atomic
read_data structure.inp
  orthogonal box = (0 0 0) to (12.15 12.15 12.15)
  1 by 1 by 1 MPI processor grid
  reading atoms ...
  108 atoms
include potential.inp
pair_style eam/alloy
pair_coeff * * AlAg.lammps.eam Al Ag
fix 1 all npt temp 400 400 1.0 iso 0.0 0.0 1.0
variable  dumptime equal 100
dump 1 all custom ${dumptime} dump.out id type xsu ysu zsu fx fy fz
dump 1 all custom 100 dump.out id type xsu ysu zsu fx fy fz
dump_modify 1 sort id format line "%d %d %20.15g %20.15g %20.15g %20.15g %20.15g %20.15g"
thermo_style custom step temp pe etotal pxx pyy pzz vol
thermo_modify format  float %20.15g
thermo 100
velocity all create 800 68935 dist gaussian
run 10000
Neighbor list info ...
  1 neighbor list requests
  update every 1 steps, delay 10 steps, check yes
  max neighbors/atom: 2000, page size: 100000
  master list distance cutoff = 8.5
  ghost atom cutoff = 8.5
  binsize = 4.25 -> bins = 3 3 3
Memory usage per processor = 3.93753 Mbytes
Step Temp PotEng TotEng Pxx Pyy Pzz Volume 
       0                  800    -362.880399705225    -351.815731293225    -4151.02219826349     -3600.8268923818    -4127.81192878386          1793.613375 
     100     375.982173795889    -357.038987581935    -351.838839979592    -4823.55267170346    -11910.1874269579    -9578.53076118397     1832.45025436045 
     200     478.455380233359    -358.498013938636    -351.880576273361     1274.77931062353     2790.44674467103     1079.35707278221     1801.95348918569 
     300     416.383762066343     -357.63431434605    -351.875379021794     3928.82073233092    -2656.28680566375    -1858.80348026861     1806.05629436885 
     400     391.213705131821    -357.243835319907    -351.833022913015    -6956.84558803002    -6465.36089875859    -4887.13080711391     1827.94421777306 
     500     399.009773177796    -357.328275339776    -351.809636798077     10850.9722431681     5995.86513722462     5457.41330993285     1785.95948303096 
     600     404.388631889604    -357.431436028243    -351.838403376442    -3506.74749080842    -7371.19791367578    -5740.19685783799     1824.19835047587 
     700     396.744837850034    -357.361028243955    -351.873715650225     343.469132209704     -125.17433730233     -2583.7707433693     1808.58980344197 
     800     408.204089254178    -357.478303253433    -351.832499638408     4447.44956411024     6108.04328056112     2474.37904989067     1797.07629930901 
     900     385.660444413391    -357.127534326739    -351.793528155416    -1812.53876225183    -8975.78788900752    -8802.30632972622     1827.57732842223 
    1000     404.855360639104    -357.380668419443    -351.781180519078     7999.29917416777     3976.63232405084     4783.15086583761     1794.28580646322 
    1100     379.064034182897    -357.029434404018    -351.786662097582     961.694054761169     473.826198655191    -2937.47201249333     1813.10359528295 
    1200     419.032890650766    -357.561676608096    -351.766101622131    -3020.43596239672    -2743.12749637851    -1630.33161893186     1814.02000824078 
    1300     407.190364177532    -357.368015118711    -351.736232168479     5489.60370660914     2378.05014637998     4706.53830907897     1797.94939565388 
    1400     363.487584348445    -356.730709082252    -351.703372091384    -4544.14688956406    -3935.35922791458    -5548.20988796939     1823.15682184881 
    1500     427.641958609808    -357.593831932183    -351.679186343339     2805.06049943152        1802.59495965      6696.1713501816     1800.40980989742 
    1600     432.522218194522    -357.641693247949    -351.659549591518    -3286.23601275642    -1989.57344588965     -2856.4581399518     1814.11141806579 
    1700      390.70812958392     -357.01874027444    -351.614920399791    -1025.61873980599    -2102.26522250292    -3445.80535439286      1818.0001884777 
    1800      399.00949709248    -357.071487071998    -351.552852348789      6693.8044770956     5331.12956462636     3662.17422826078     1797.25628935094 
    1900     380.826083792611    -356.770660932332    -351.503518007575    -1293.08869317703    -2561.70839360868    -4380.49089584502      1821.8732053517 
    2000     403.267209478747    -357.024014902155    -351.446492459262     462.312181755847     2590.69544620829    -2064.07244660117     1811.46679059791 
    2100     392.012013424833    -356.793599327247    -351.371745649664     5016.67362872342     1714.33267959323     2337.90407306465     1806.34283089486 
    2200     422.063443317224    -357.124987649803    -351.287497588388    -2437.95435041698    -2154.84557685217    -4257.33231609476     1822.52772868753 
    2300     376.798268679634    -356.419824503206    -351.208389626761     4098.65611762978     4418.72239566083     3736.18963406726     1804.13396767346 
    2400      456.85216087663    -357.444769863223    -351.126122771466    -3166.38912078708    -944.305799607291    -1547.48772054135     1817.88927544401 
    2500     460.301576099521    -357.408058445723    -351.041703059395    -5124.69557546202    -1501.28514789854    -6023.42261686908     1818.18206235431 
    2600     425.597034173595    -356.839271816524    -350.952909241197      6422.4684362589     4383.84397474565     3151.84649997338     1802.56543106089 
    2700     481.640702568244    -357.533419440471    -350.871926105921    -4731.33117822307    -6901.11981635292    -5815.74119312399     1825.67537971569 
    2800     440.380030121557    -356.894964005076    -350.804140244374    -1402.99418426652     1428.03464745362    -1403.13111304951     1812.60761709134 
    2900     449.298770256271    -356.945647149924    -350.731469761418     2768.66441957068     302.092053579863     808.503506290646     1808.51382328769 
    3000     417.503894539703    -356.446033288928    -350.671605596678    -903.260330160331    -2375.38941398315    -2128.59188142594     1822.12491510239 
    3100     463.242045853587    -357.034953663568    -350.627929123735     298.267905980061     1078.69792465865     1493.26589383434     1808.55500266517 
    3200     394.871657954245    -356.058705778105    -350.597300827405     3350.59260481074     3305.51007296735     1634.01397805394     1817.08427669226 
    3300     455.155308538771    -356.855059751893    -350.559881545714    -3692.61155452848    -486.615776248721    -4745.32529429817     1826.22349445248 
    3400     390.050090895338    -355.932757597017    -350.538038947233     7227.25255115645     6124.45413718371     4206.38969228474     1807.04197589076 
    3500     466.960344631813    -357.005029699052    -350.546577980421    -2658.99259536462    -4717.37525809592    -3451.65186880137     1826.31886330704 
    3600     432.028185333574    -356.554850458149    -350.579539688957     1279.38714314064    -1692.66057951763    -1395.92404046406     1819.54554971416 
    3700     466.702496175618     -357.02713921565    -350.572253756605     1241.09737144782     3634.92369714676     5944.15143389739     1804.05117452178 
    3800     415.427504411737    -356.341450218292    -350.595740736366    -6046.88585662774    -5792.10183620132    -6485.99608586994     1833.44517689826 
    3900     482.034565876681     -357.31036899293    -350.643428199745     4135.64977696507     5425.66198229094     5124.88072760695      1801.7130256471 
    4000     415.624021043087     -356.47711030102    -350.728682829891    -2196.75679448543     -2911.1658750556    -566.917855247537     1818.47965585812 
    4100     465.076778582183    -357.233060730384    -350.800660303968    -2780.27688253889     1049.20842561565    -3053.10115831822     1820.86363929923 
    4200     457.866479914625    -357.214169728681     -350.88149375715     2408.19898689572     2943.61970539799     4175.42324933101     1802.56829671868 
    4300     418.548407552629    -356.785263038986    -350.996388859061      -3241.009443119    -3987.65981354876    -5724.42401791479     1825.41135322971 
    4400     461.788975228164    -357.517906175091     -351.13097881607     1041.25694731355    -1317.91984985662     1668.54434760416     1807.00611949901 
    4500     437.105019679418    -357.312188166711    -351.266660536744     1090.85469217018     3734.35525871922    -436.623052114274     1807.53092764543 
    4600     350.012219159195    -356.225217038029    -351.384255606598    -4326.91923645302    -4179.06774680559     737.426217994472     1823.93926368037 
    4700      415.99649191385    -357.264968587689    -351.511389533211     5994.16811276542     4682.90457662951     4637.42422059739     1797.98237180884 
    4800     454.036828177748    -357.924947549525    -351.645238861246    -5393.64625183474    -2355.09250837137    -5638.51686302691     1821.86194200493 
    4900     389.748286050705    -357.162396654561     -351.77185221794    -1777.42999944652    -1629.65688809388    -3388.42648897256     1815.96615819169 
    5000     434.644084323714    -357.852177910291    -351.840687072442     4822.59480572657     4414.53578433208     3455.10705835917     1794.60139806708 
    5100      343.12061742187    -356.657442650319    -351.911797828951    -1685.79126134179    -4799.81717770685    -7216.58118426943     1825.51721885468 
    5200     368.045112515358    -357.082935313483    -351.992563900183     5918.54665643182      3632.7271648764     6250.46222916186     1796.83691766056 
    5300     352.835103779413    -356.934895473886    -352.054891189595     255.875513879038      2601.1080246706    -2286.16387631956      1810.9025803095 
    5400     450.773883527018    -358.319046357202    -352.084466919682    -5714.08104597501     -6443.0697529182    -7185.45211479507     1819.26271769774 
    5500     364.886427101875    -357.147456073968    -352.100771919066     9095.13326121156     5893.82010041217     6495.11078380307     1791.27091575132 
    5600      398.55916648748    -357.644793503089    -352.132387228405    -5276.40651309122    -7323.92428368586     -6503.9066534616     1825.53865603373 
    5700     387.553439605025    -357.533395183502    -352.173207307053     2192.26770818534     3261.68852811837     5561.26225828358      1801.6034877223 
    5800     354.131070936275    -357.077942324696    -352.180013731825     3227.25597009966     3044.09640330011     2153.48626968655     1805.78275508714 
    5900     356.129176742757    -357.097567517989    -352.172003452368    -5954.29562413744    -5377.20649232723    -3680.85180892479     1824.72094490956 
    6000     401.322477258803    -357.707258991334    -352.156633819895     6994.94560022478     6469.91836118429     4915.59413618449     1790.97382790387 
    6100     381.825030793041    -357.460510077733    -352.179550881325    -4164.38358768135    -5842.38814026677     -7451.9591652234     1824.30313904976 
    6200     420.224211178581    -358.011731147122     -352.19967920289     927.101868489383    -1336.66359938021    -384.380883563291     1808.17069771481 
    6300     400.835461321711    -357.714361342068    -352.170472007948     3270.94393207349     4030.39943892153     2389.66527787837      1798.0656380607 
    6400     406.477154509648    -357.749652226984    -352.127733562356    -6666.30376238735    -9641.91834691076    -7608.94596361717     1829.57027039616 
    6500     393.047727641898    -357.548773129492    -352.112594658932     5699.75095316465     4142.98458114485     6883.28884980049     1794.02620903883 
    6600     357.019172762125     -357.05303707922    -352.115163625046    -2867.64224682071     510.854717522374    -1021.11982326934     1816.10378309449 
    6700     371.542370237939    -357.233332901969    -352.094591492354    -444.980467599255    -1099.44653154001    -3158.74852331051     1815.78180385058 
    6800     418.754916993765    -357.835178226292    -352.043447848254     6951.03781865096       2939.929255943     3604.77586846004     1795.07356937228 
    6900     383.364766233044    -357.299852419168    -351.997597395152    -7221.37612791608    -6159.63140046901    -6998.25536457807     1830.35055329771 
    7000     397.740727403812    -357.490454979675    -351.989368401336     5477.57327242655     6004.04747529279     5315.32246877404     1791.80387620653 
    7100     367.526629341438    -357.061445977197    -351.978245619394    -43.6379151030526    -1068.43207506627     527.527515817198     1811.53760541358 
    7200     405.658815230506    -357.516652659751    -351.906052311088     -4615.7909672333    -7733.29083111663    -8093.60480954916      1827.8698659731 
    7300     421.476621173559    -357.637130517713    -351.807756696844      11608.536742782     10206.2579023758     10894.0265574286     1779.67680613235 
    7400     377.078284553281    -357.002826750928    -351.787519020993    -7824.55628992147    -9995.48135001337    -8529.69074686397     1838.14053578656 
    7500      421.83012146069    -357.645486156611    -351.811223131416     184.605571919545     2702.73950897824     354.570498183612     1806.63177855255 
    7600     415.215772716989    -357.443625118093    -351.700844062411     7955.17367614409     5894.90869887474     4211.68251397226     1795.01220133581 
    7700     413.177086206276    -357.269004897593    -351.554420579707    -13938.9105730509    -15286.4310543266     -10960.375220905     1848.08795552837 
    7800     454.247672894153    -357.774520310671      -351.4918954638     11628.5390462786     11137.2183854595     11847.2382380947     1781.17756008046 
    7900     412.111399382073    -357.194507283879     -351.49466230517    -4499.16333315035     -7808.6297581371    -6654.63701202247     1827.96200582208 
    8000     372.823224889908    -356.596272758884     -351.43981605926    -1492.17757512779    -5396.77365237656    -405.304687283361     1822.74622361233 
    8100     394.079994057306    -356.728819658703    -351.278364081144     10334.5357285882     7672.66408311274     14724.8348940842     1785.69435528259 
    8200      369.33532810999    -356.284601644794    -351.176385471826    -9360.19614705942    -8480.05068194036    -8274.99396191698     1845.94904340969 
    8300     413.031478204302    -356.881093144984    -351.168522707423     4045.86041306488     5033.29432071674     8111.61162158519      1797.7195634503 
    8400     396.185068402343    -356.583743435051    -351.104172920479     805.461555400778     784.504812619189     3145.09268137188     1816.36524172822 
    8500     409.770064337188    -356.628127419758     -350.96066506094    -7420.50875082439    -3916.17712927348    -4439.99803243542     1835.29904967729 
    8600     437.805191224077    -356.893786800948    -350.838575213514     8033.17146421162     6882.61094842424     8118.68557962876      1795.3860412935 
    8700     455.197065585385    -357.071952757204    -350.776197016182    -6729.89153825416    -8615.64584357112    -5180.20701295696     1833.52501047831 
    8800      426.14145682864    -356.604749734912    -350.710857339392     919.399889519163    -756.216996655405     1386.00727911489     1816.60393601176 
    8900     430.078877923049    -356.559600063283    -350.611249844254     3602.22981259844     3470.17578926079     6150.77364216818     1805.69629457449 
    9000     382.742894059931    -355.796262334801    -350.502608322523    -5190.62253047583    -7489.10424664471     -2314.2709198449      1835.7029408892 
    9100     423.247843061472    -356.280021706769    -350.426150407307     7407.71045093169     6835.82658951388     7368.03951202773      1799.8712901594 
    9200     453.136421937029    -356.644803838057     -350.37754852039    -4064.74684729024    -2419.94350955764    -5235.12901065503     1826.70678944581 
    9300     412.922412003978    -356.038149317673    -350.327087356788    -20.4105037143175    -659.134804244739     670.455301877844     1820.94238199921 
    9400     457.058831957332      -356.5648534252     -350.24334789972     4415.01478813254     7005.41777334362     4883.86155134787     1801.78026336178 
    9500     473.530369140782    -356.744987110772    -350.195666463829    -9208.84502299054    -6058.95410175845    -11593.3767822908     1838.08003374611 
    9600     488.818432750202    -356.942269331383    -350.181501991315     2761.93129846012     5565.15373544825      2532.1302655398     1803.59004578819 
    9700     459.521637398985    -356.539824910933    -350.184256728484     -590.47702483886    -469.990346366212    -2935.90669312612     1822.57940257515 
    9800     433.115518570258    -356.143881910224    -350.153532413885      -2096.344847233    -1051.23588353472    -3889.93372715682     1827.74565208038 
    9900     471.596349195866    -356.657385012372    -350.134813477169     3124.25726142671     7560.69231785501     4552.52735158734     1802.90859871734 
   10000     438.157991315097    -356.217757294953    -350.157666187491    -3556.55532603934    -2175.76734732201    -6706.33282316823     1832.38664579122 
Loop time of 2.74321 on 1 procs for 10000 steps with 108 atoms

Performance: 314.959 ns/day, 0.076 hours/ns, 3645.363 timesteps/s
99.7% CPU use with 1 MPI tasks x no OpenMP threads

MPI task timing breakdown:
Section |  min time  |  avg time  |  max time  |%varavg| %total
---------------------------------------------------------------
Pair    | 2.557      | 2.557      | 2.557      |   0.0 | 93.21
Neigh   | 0          | 0          | 0          |   0.0 |  0.00
Comm    | 0.070076   | 0.070076   | 0.070076   |   0.0 |  2.55
Output  | 0.034393   | 0.034393   | 0.034393   |   0.0 |  1.25
Modify  | 0.063108   | 0.063108   | 0.063108   |   0.0 |  2.30
Other   |            | 0.01867    |            |       |  0.68

Nlocal:    108 ave 108 max 108 min
Histogram: 1 0 0 0 0 0 0 0 0 0
Nghost:    1580 ave 1580 max 1580 min
Histogram: 1 0 0 0 0 0 0 0 0 0
Neighs:    7560 ave 7560 max 7560 min
Histogram: 1 0 0 0 0 0 0 0 0 0

Total # of neighbors = 7560
Ave neighs/atom = 70
Neighbor list builds = 0
Dangerous builds = 0
Total wall time: 0:00:02
