ITEM: TIMESTEP
0
ITEM: NUMBER OF ATOMS
108
ITEM: BOX BOUNDS pp pp pp
0.0000000000000000e+00 1.2150000000000000e+01
0.0000000000000000e+00 1.2149999999999990e+01
0.0000000000000000e+00 1.2149999999999990e+01
ITEM: ATOMS id type xsu ysu zsu fx fy fz 
1 1                    0                    0                    0 -2.22044604925031e-16 2.34534613952064e-14  2.3557544803765e-14 
2 1                    0    0.166666666666629    0.166666666666629 -5.55111512312578e-17 -2.4980018054066e-16 -2.22044604925031e-16 
3 1    0.166666666666629                    0    0.166666666666629  1.2490009027033e-15 2.37206088105069e-14 -2.58473797920544e-16 
4 1    0.166666666666629    0.166666666666629                    0 1.33226762955019e-15 7.94503351997378e-16  2.4459601011273e-14 
5 1                    0    0.333333333333371                    0 -2.22044604925031e-16 7.14706072102445e-16 2.21628271290797e-14 
6 1                    0                  0.5    0.166666666666629 -4.71844785465692e-16 -4.75747913286639e-16 -1.38777878078145e-17 
7 1    0.166666666666629    0.333333333333371    0.166666666666629 1.38777878078145e-16  9.0205620750794e-17 -2.4980018054066e-16 
8 1    0.166666666666629                  0.5                    0 1.83186799063151e-15 1.22211268882566e-15 2.45088237899038e-14 
9 1                    0    0.666666666666629                    0 -5.55111512312578e-16 1.30798150088651e-15 2.33701946683595e-14 
10 1                    0    0.833333333333371    0.166666666666629 -5.96744875736022e-15 -2.49991000123018e-14 5.55111512312578e-16 
11 1    0.166666666666629    0.666666666666629    0.166666666666629 2.08166817117217e-15 6.34908792207511e-16 -1.01828268039839e-15 
12 1    0.166666666666629    0.833333333333371                    0 2.94209101525666e-15 -2.40502062709425e-14 2.32244778963775e-14 
13 1    0.333333333333371                    0                    0 -8.32667268468867e-16  2.3185880299037e-14 2.32561365998141e-14 
14 1    0.333333333333371    0.166666666666629    0.166666666666629 -1.3314002678122e-15 -1.72550775751068e-16 -1.3162214373974e-16 
15 1                  0.5                    0    0.166666666666629 1.98408997564847e-15 2.39116994434074e-14 -2.4980018054066e-16 
16 1                  0.5    0.166666666666629                    0 1.93985452701106e-15 9.15933995315754e-16  2.4615997174654e-14 
17 1    0.333333333333371    0.333333333333371                    0 -1.40512601554121e-16 4.46257614195034e-16  2.2921118128516e-14 
18 1    0.333333333333371                  0.5    0.166666666666629 -2.00360561475321e-16 3.39326240188652e-16 -8.92840489041813e-16 
19 1                  0.5    0.333333333333371    0.166666666666629 1.35986100698105e-15 5.71591385334358e-16 -2.8124204354274e-16 
20 1                  0.5                  0.5                    0 2.90739654573713e-15 2.73544208118093e-16 2.48216703267745e-14 
21 1    0.333333333333371    0.666666666666629                    0 -2.55611504185183e-15  2.0721271920543e-15 2.38162896522287e-14 
22 1    0.333333333333371    0.833333333333371    0.166666666666629 -3.07739944638286e-15 -2.47771096174854e-14 -6.01406945077709e-16 
23 1                  0.5    0.666666666666629    0.166666666666629 -1.33707082106225e-16 6.93889390390723e-17 -1.89084858881472e-16 
24 1                  0.5    0.833333333333371                    0 -5.68989300120393e-16 -2.45845011015433e-14 2.48065457064683e-14 
25 1    0.666666666666629                    0                    0 1.90125692967058e-15 2.43936815191859e-14 2.45185816094562e-14 
26 1    0.666666666666629    0.166666666666629    0.166666666666629 -1.04083408558608e-16 -1.04083408558608e-16 -1.70002900645727e-16 
27 1    0.833333333333371                    0    0.166666666666629 2.15105711021124e-16 2.24716079078036e-14 -2.4980018054066e-16 
28 1    0.833333333333371    0.166666666666629                    0 1.66533453693773e-16 8.74300631892311e-16 2.33459085396959e-14 
29 1    0.666666666666629    0.333333333333371                    0 9.57567358739198e-16 1.04343617080005e-15 2.35783614854768e-14 
30 1    0.666666666666629                  0.5    0.166666666666629 1.94289029309402e-16 -7.35522753814166e-16 -3.24393290007663e-16 
31 1    0.833333333333371    0.333333333333371    0.166666666666629 -1.2490009027033e-16 8.01659086335782e-16 -2.91433543964104e-16 
32 1    0.833333333333371                  0.5                    0 3.60822483003176e-16 6.66133814775094e-16 2.34950947586299e-14 
33 1    0.666666666666629    0.666666666666629                    0  1.6306400674182e-15 9.73179870022989e-16 2.46296039119187e-14 
34 1    0.666666666666629    0.833333333333371    0.166666666666629 7.04297731246584e-16 -2.34048891378791e-14 -3.36536354339501e-16 
35 1    0.833333333333371    0.666666666666629    0.166666666666629 2.65759636519647e-15 1.87350135405495e-15 8.60422844084496e-16 
36 1    0.833333333333371    0.833333333333371                    0 1.73472347597681e-15 -2.4161228573405e-14 2.41681674673089e-14 
37 1                    0                    0    0.333333333333371 -2.22044604925031e-16 2.31203944878189e-14 -1.31838984174237e-16 
38 1                    0    0.166666666666629                  0.5 -3.60822483003176e-16 6.38378239159465e-16 2.77555756156289e-16 
39 1    0.166666666666629                    0                  0.5 1.66533453693773e-15  2.4230617512444e-14 1.01763215909489e-15 
40 1    0.166666666666629    0.166666666666629    0.333333333333371 2.22044604925031e-16 -1.17961196366423e-16 1.21430643318376e-16 
41 1                    0    0.333333333333371    0.333333333333371 -2.77555756156289e-16 1.02695629777827e-15 8.11850586757146e-16 
42 1                    0                  0.5                  0.5 -4.82947015711943e-15 1.21560747579075e-15 -1.97324795392362e-17 
43 1    0.166666666666629    0.333333333333371                  0.5 -1.69309011255336e-15   6.956241138667e-16 4.71844785465692e-16 
44 1    0.166666666666629                  0.5    0.333333333333371 -1.60982338570648e-15 4.05493773215086e-17 7.04297731246584e-16 
45 1                    0    0.666666666666629    0.333333333333371 -5.52335954751015e-15 3.92047505570758e-16 1.09114106638941e-15 
46 1                    0    0.833333333333371                  0.5 -5.07927033766009e-15 -2.6624535909292e-14 1.02695629777827e-15 
47 1    0.166666666666629    0.666666666666629                  0.5 3.88578058618805e-16 1.01828268039839e-15 -1.38777878078145e-17 
48 1    0.166666666666629    0.833333333333371    0.333333333333371 -1.02695629777827e-15 -2.47666470665209e-14 -1.6826817716975e-16 
49 1    0.333333333333371                    0    0.333333333333371 -1.53523027623947e-16  2.4240429542105e-14 -4.05328982183706e-16 
50 1    0.333333333333371    0.166666666666629                  0.5 -1.38777878078145e-16 -3.64888241149997e-16 9.34528062573881e-16 
51 1                  0.5                    0                  0.5 2.81458883977237e-15 2.47179663889763e-14 4.82469966756049e-18 
52 1                  0.5    0.166666666666629    0.333333333333371 1.35934342799246e-15 -8.32667268468867e-17 3.57353036051222e-16 
53 1    0.333333333333371    0.333333333333371    0.333333333333371 -6.31439345255558e-16 -1.36663683841798e-16 -4.96564594998361e-17 
54 1    0.333333333333371                  0.5                  0.5 8.34401991944844e-16 1.33584571278994e-15 6.27210956782864e-17 
55 1                  0.5    0.333333333333371                  0.5 2.45723580372115e-15 9.95731275210687e-16 -2.02203705168547e-17 
56 1                  0.5                  0.5    0.333333333333371 2.39998992901391e-15 -3.47974687259223e-16 7.65013052905772e-16 
57 1    0.333333333333371    0.666666666666629    0.333333333333371 -1.37693675905659e-15  1.0544950329594e-15 6.63369099235256e-16 
58 1    0.333333333333371    0.833333333333371                  0.5 -1.77852524374522e-15 -2.54808110375371e-14 1.16589680618229e-15 
59 1                  0.5    0.666666666666629                  0.5  4.9591407369487e-16  2.4980018054066e-16 -6.95082012780457e-16 
60 1                  0.5    0.833333333333371    0.333333333333371 -6.07207426700507e-16 -2.51682897613181e-14 -1.03649727689614e-16 
61 1    0.666666666666629                    0    0.333333333333371 9.99200722162641e-16 2.47302178735254e-14 2.25514051876985e-16 
62 1    0.666666666666629    0.166666666666629                  0.5 2.15105711021124e-16 1.26634813746307e-16 -1.42247325030098e-16 
63 1    0.833333333333371                    0                  0.5  3.2612801348364e-16 2.32175390024736e-14 4.85722573273506e-16 
64 1    0.833333333333371    0.166666666666629    0.333333333333371 -1.35308431126191e-16 -1.6306400674182e-16 6.21031004399697e-16 
65 1    0.666666666666629    0.333333333333371    0.333333333333371 -1.68918698473242e-16 1.00397121172158e-15 8.27354677823688e-16 
66 1    0.666666666666629                  0.5                  0.5 3.33066907387547e-16 2.70616862252382e-16 -1.02175212735034e-15 
67 1    0.833333333333371    0.333333333333371                  0.5 1.79023462720806e-15  2.1315414711065e-15 1.81105130891979e-15 
68 1    0.833333333333371                  0.5    0.333333333333371 1.84574577843932e-15 1.40165656858926e-15 1.83186799063151e-15 
69 1    0.666666666666629    0.666666666666629    0.333333333333371 1.04603825601401e-15 -5.20417042793042e-18 1.16920362280837e-15 
70 1    0.666666666666629    0.833333333333371                  0.5 1.83186799063151e-15 -2.47839943012806e-14 1.87350135405495e-16 
71 1    0.833333333333371    0.666666666666629                  0.5 4.25354196309513e-15 7.32053306862213e-16   5.759281940243e-16 
72 1    0.833333333333371    0.833333333333371    0.333333333333371 3.39225175727265e-15 -2.61264534312522e-14 -8.43509290193722e-17 
73 1                    0                    0    0.666666666666629 -6.38378239159465e-16 2.24611995669477e-14 5.82867087928207e-16 
74 1                    0    0.166666666666629    0.833333333333371 -6.38378239159465e-15 3.11556336285435e-15 -2.54640059038636e-14 
75 1    0.166666666666629                    0    0.833333333333371 3.33066907387547e-15 1.84140896974938e-14 -2.50875709095766e-14 
76 1    0.166666666666629    0.166666666666629    0.666666666666629 1.72084568816899e-15 8.46545056276682e-16 1.06338549077378e-15 
77 1                    0    0.333333333333371    0.666666666666629 -5.4678483962789e-15 -1.95503335742586e-15 1.23512311489549e-15 
78 1                    0                  0.5    0.833333333333371 -4.49640324973188e-15 -1.93985452701106e-15 -2.64094301982709e-14 
79 1    0.166666666666629    0.333333333333371    0.833333333333371 -1.20736753927986e-15 -1.82666382020358e-15 -2.53738002831128e-14 
80 1    0.166666666666629                  0.5    0.666666666666629 -8.32667268468867e-17 -9.4542429440736e-16 6.71337985203024e-16 
81 1                    0    0.666666666666629    0.666666666666629 -5.4678483962789e-15 1.80411241501588e-15 1.52655665885959e-16 
82 1                    0    0.833333333333371    0.833333333333371 -5.21804821573824e-15 -2.39183672867682e-14 -2.65690247580608e-14 
83 1    0.166666666666629    0.666666666666629    0.833333333333371 1.01307850997046e-15 1.80584713849186e-15 -2.38385700068733e-14 
84 1    0.166666666666629    0.833333333333371    0.666666666666629 9.71445146547012e-16 -2.34916253116779e-14 2.05044314860459e-15 
85 1    0.333333333333371                    0    0.666666666666629 -2.68361721733612e-15 2.28908146777951e-14 1.25263297998113e-15 
86 1    0.333333333333371    0.166666666666629    0.833333333333371 -3.09691508548759e-15 9.44448512452123e-16 -2.53392684439191e-14 
87 1                  0.5                    0    0.833333333333371 -5.65953534037433e-16  2.0354648955917e-14 -2.56669685505528e-14 
88 1                  0.5    0.166666666666629    0.666666666666629 -9.64647374813482e-17 1.27675647831893e-15 3.79904441238921e-16 
89 1    0.333333333333371    0.333333333333371    0.666666666666629 -1.58423621443582e-15 -1.53658552895508e-15 1.75385964432118e-15 
90 1    0.333333333333371                  0.5    0.833333333333371 -1.71650887947905e-15 -1.04094250580333e-15 -2.51179827805148e-14 
91 1                  0.5    0.333333333333371    0.833333333333371 -7.52869988573934e-16 -1.60895602396849e-15 -2.57216665501547e-14 
92 1                  0.5                  0.5    0.666666666666629 3.20056481317721e-16 -2.00696664148792e-15 -8.32667268468867e-17 
93 1    0.333333333333371    0.666666666666629    0.666666666666629 -3.44342609981396e-15 2.36621703134099e-15 7.55472073787899e-16 
94 1    0.333333333333371    0.833333333333371    0.833333333333371 -4.80995451801469e-15 -2.28974825211559e-14 -2.55666798495979e-14 
95 1                  0.5    0.666666666666629    0.833333333333371  -3.216177324461e-15 1.13103970633688e-15 -2.40397979300866e-14 
96 1                  0.5    0.833333333333371    0.666666666666629 -2.93862156830471e-15 -2.3862856135537e-14 1.01307850997046e-15 
97 1    0.666666666666629                    0    0.666666666666629 1.79717352111197e-15 2.37934671964979e-14 2.48065457064683e-16 
98 1    0.666666666666629    0.166666666666629    0.833333333333371  1.1518563880486e-15 1.62023172656234e-15 -2.39218367337202e-14 
99 1    0.833333333333371                    0    0.833333333333371 2.09554595897998e-15 1.99493199737333e-14 -2.53408405370692e-14 
100 1    0.833333333333371    0.166666666666629    0.666666666666629  2.6853519408121e-15 3.03923552991137e-15  2.3037127760972e-15 
101 1    0.666666666666629    0.333333333333371    0.666666666666629 1.46063716677247e-15 -1.33158785237683e-15  9.5062846483529e-16 
102 1    0.666666666666629                  0.5    0.833333333333371 2.00880978518114e-15 -2.33320307518881e-15 -2.43763342844261e-14 
103 1    0.833333333333371    0.333333333333371    0.833333333333371 3.33674060604139e-15 -2.37418591730876e-15 -2.67160425726498e-14 
104 1    0.833333333333371                  0.5    0.666666666666629 3.51108031537706e-15 -9.60169443953163e-16 3.46944695195361e-16 
105 1    0.666666666666629    0.666666666666629    0.666666666666629 2.52922682797418e-15 8.06646416329215e-16 -4.54497550705923e-16 
106 1    0.666666666666629    0.833333333333371    0.833333333333371 2.92127433354494e-15 -2.28748226957509e-14 -2.47397588526432e-14 
107 1    0.833333333333371    0.666666666666629    0.833333333333371 3.42434414157822e-15 1.86656246015104e-15 -2.54692100742915e-14 
108 1    0.833333333333371    0.833333333333371    0.666666666666629 4.18415302405606e-15 -2.5132673719952e-14   1.346145417358e-15 
ITEM: TIMESTEP
100
ITEM: NUMBER OF ATOMS
108
ITEM: BOX BOUNDS pp pp pp
-1.2046383261934945e-01 1.2270463832619344e+01
-1.2046383261934945e-01 1.2270463832619333e+01
-1.2046383261934945e-01 1.2270463832619333e+01
ITEM: ATOMS id type xsu ysu zsu fx fy fz 
1 1    0.019174177332161  -0.0030051786947638 -0.00567390484258112   -0.336992503775623     0.39670198716173   -0.247318222269664 
2 1 -0.00267686529150524    0.188921623362376     0.18342735193221      0.1417036737248   -0.118981917732648    0.144859236920624 
3 1    0.140078825039268   0.0107174973865085    0.180114470540047    0.866147509377257    0.624229201709178   -0.256489592908473 
4 1    0.163563429768374    0.174787252833426 -0.00998031467281635    0.073603712802584   -0.369852940712622   0.0672408578346619 
5 1 -0.00340247160630724    0.343577359794153  0.00153620677224353   -0.342789541386483  -0.0038304768532044   -0.234255854146941 
6 1   0.0156647299749011    0.506344790280423     0.17359730701105   -0.681165698221223   -0.112451318344067    0.256096890807541 
7 1    0.157368767538173    0.330108012222354    0.144167969911678    0.589861909324066     0.16399583374467    0.804230825932652 
8 1    0.157582931636625    0.513289471539906   0.0116265509346931    0.255765984218479   -0.200052406313656   -0.547936596393067 
9 1   0.0115268668629369    0.680281647824359   0.0211765260164611   -0.504202188322312  -0.0350771886665977   -0.305312776920309 
10 1  0.00645267831930596    0.851453779971166    0.158021872197651   -0.409929537620661   -0.645561136250223    0.349211084608979 
11 1    0.170159198717215    0.676588395490057     0.17724264303547  0.00930924083500281  -0.0782964181821475  0.00648173941800556 
12 1    0.179165836411357    0.832675184673917  -0.0198316724948313   -0.360528622728254   -0.346136934581934    0.467155493511721 
13 1    0.334310833616428  -0.0176886227357045 0.000804663035523845    0.233126169067918     0.69689038035647    0.173401783458526 
14 1    0.334282468546917    0.146356336276085    0.167580874701002  -0.0380152282066412    0.309144730706402   -0.311952563823281 
15 1    0.519524837126482 -0.000416398665890938    0.167867539370718   -0.640864812732795   -0.221167967320284    0.122511587043538 
16 1     0.50679868565669    0.142446831552661  0.00534191526980976   -0.301776028231428    0.491043294022791   -0.287258138894495 
17 1    0.325641837658623    0.331749724801966 -0.00282665995382558    0.275624106599178  -0.0352266441455247  -0.0291373463914426 
18 1     0.32485846652969    0.501816152201513    0.161088707514182    0.197167389238445    -0.11247634496549   0.0837517921153774 
19 1    0.498498540420087    0.328749749317694    0.148803131854152  -0.0869852957283355   -0.312789455755451   0.0865951575059943 
20 1    0.499930324870888    0.496996679624544   0.0031261562500049   -0.220250588687262    0.124558022589255   -0.277708551674407 
21 1    0.332737506508579    0.659293053918418 -0.00715116566209417    0.107899883035971    0.114027383004644   0.0605312636192364 
22 1    0.323512488722258    0.825731630109885    0.153157115133126    0.341001799889158    0.158297261658032     0.49926449406883 
23 1    0.501976171000479     0.66956290311964    0.165436313049781    -0.18935200072203   0.0126789133072444    0.203169590650653 
24 1    0.506912482602615    0.835200651855075   0.0087005913566145  -0.0741168390554999   -0.139125989776526   -0.224627022690528 
25 1     0.67413698561802 -0.00924909191724055 -0.00262760482092972     0.12987212539438    0.171697563863338   -0.435664988284586 
26 1    0.680705202002969    0.161412592063812    0.146448350912351   -0.487274618214437    0.441271838674618     0.42945385271941 
27 1    0.853784426854418   0.0241620165604672    0.148754535406283   -0.166035846046489   -0.656743229802364    0.345498594805868 
28 1    0.841839702343918    0.176837210941585  0.00583671666845476    0.251396157984012    0.261543957826386   -0.722530513895327 
29 1    0.679455254727714     0.34670870357445  -0.0154791971425539   0.0255885362937207   -0.366459087881668    0.603883612361183 
30 1    0.653396689283682    0.500702493329982    0.166241164038638    0.494026209252677  0.00476308001242912  -0.0250458344831364 
31 1    0.832110153461258    0.332048292102968    0.178172750078488  -0.0583038773164618    0.512086192729501  -0.0916743974293875 
32 1    0.832175159294593    0.518560342593673  -0.0172339661804131    0.215085970817887   -0.460552330380853     1.27510160357243 
33 1    0.662199097177563    0.664363885909552  0.00492018532486327    0.167759787059766    0.189390035466723   0.0285840137712978 
34 1    0.672108795447116    0.839487740277605    0.164058559339196   0.0651555781982096   -0.301697554678404    0.317206984291423 
35 1     0.81898199851662    0.671538826312258     0.17971394371466    0.245352781816942   -0.113960453712258   -0.156025681900432 
36 1    0.837698044377248    0.839102767632198   0.0081037295576607    0.032374938595035   -0.226737388768656   -0.226652340016857 
37 1  -0.0206382958678546  0.00289082902224891    0.329769936002776    0.285989592864343    0.104570553286553    0.236588869719128 
38 1   0.0137632384848985    0.177548772565387    0.483419369370608   -0.428323315987376   -0.717213089622197    0.336930027995492 
39 1    0.181660650223421  0.00929041551148657    0.517428105572662    -0.24076245402066   -0.192555607048001    -0.79679508653911 
40 1    0.179962077507412     0.17383344543714    0.340774026482563  0.00473279373219265   -0.281675910640493   -0.512335073560562 
41 1 -0.00323375024760253    0.349911891101556    0.359643974679443   -0.180057954586158 -0.00191339817361837    -1.03373924464997 
42 1  -0.0161748380902509    0.496031018418648    0.509159015526961   0.0275223986966886    0.379110485805911  -0.0809186835435226 
43 1    0.176589675339301    0.328746358051717    0.488089434488984    0.166699055550602    0.326067432265177    0.570513350187292 
44 1    0.175883322667573    0.502390488722654    0.331831369768338   -0.543714158085946   -0.358709289129785  -0.0822923474023995 
45 1  0.00431627858733918    0.672312585873783    0.332204587502133   -0.152543895223165   0.0105502782405442    0.054176055295019 
46 1  0.00296396774069763    0.832370852401482    0.516086613746438    0.413012924151314    0.272524735766221   -0.218558182218086 
47 1    0.162267465195669     0.65794134681073    0.500702061061588   -0.430161788534077    0.116833784583982   -0.231911838498688 
48 1    0.155201786681687    0.850199098386497    0.330291093927144    0.107497656864282   -0.285145811365057    0.432570690366388 
49 1    0.326847704381862 -0.00342417582896815     0.32773624978654   -0.139545371289058   -0.222755544275291    0.044253135462968 
50 1    0.352457917575862    0.167516007849486    0.506055363615587   -0.252317199765797   0.0382135535110165     -0.1085949825099 
51 1    0.475552683157503  -0.0172625881300519    0.493369185864026    0.503795864141898     0.11886475393943    0.154777152494464 
52 1    0.495647742239157    0.151526368892974    0.335311622777226    0.272858867741214    0.299267738570519  -0.0503018389705548 
53 1     0.34354653822038    0.334550655862131    0.330058285299515   -0.173940713710012   -0.394590953224409   -0.419455664775053 
54 1    0.329292357441432    0.490072656750158    0.488539220976349    0.147926427381933    0.134352591299133    0.734807111811191 
55 1    0.500758152763751    0.341680036680032    0.496205757500206   0.0379971340639764   -0.321553164503239   -0.372256887928978 
56 1    0.494413380390711    0.494802339288754    0.323352575817808   0.0717140148221768    0.251285852368605  -0.0122590636862586 
57 1    0.329036668244498    0.654162665365448    0.344900529180677    0.157754373723875    0.492898101907231   -0.406738758851693 
58 1    0.317351394243133    0.815849719748485    0.510388912405688    0.361143362493797    0.343624647366268   -0.528061454924231 
59 1    0.500008857869943    0.649339227345308    0.495076736362307   -0.414133321279345    0.280921982276546    0.236356570710177 
60 1    0.478401678995056    0.825521179473299    0.338015601034158    0.197896636743477   -0.120198962894077   -0.233514993348687 
61 1    0.675407049846513  0.00219513982051467    0.316660367033251   0.0148337506854504   -0.213406128821636    0.455151875769188 
62 1    0.657362103881724    0.142035247199374    0.509162923727786  -0.0684184435160817    0.152817504599084   -0.305466776126571 
63 1    0.840771511597609 -0.00733593693848889    0.493549197621405    -0.17313695789626    0.217225422815268    0.464716650073112 
64 1    0.813930643923072    0.165004219116781    0.343579196949008    0.372081350188349    0.449397265166422  -0.0827062587007589 
65 1    0.651486837376183    0.332828761182782    0.318634075412547    0.085271700027845   -0.285522102954393    0.276728609046905 
66 1    0.666509068245432    0.501134653225449    0.501577247233513    0.112881759629532  -0.0312996344133276   -0.113229477102992 
67 1    0.812629020219674    0.335320591258892    0.501487481274808    0.150463386804875   -0.301943488895494 -0.00194958520336803 
68 1    0.809500083030798    0.511250576008706    0.342728888970555    0.575523823405144   -0.280844227340773   -0.367356017217169 
69 1    0.662600178815069    0.677687738860072    0.356838860190578  -0.0596161807976768   0.0729868016033264   -0.435108654596298 
70 1    0.662609179189758    0.849480729433935    0.506287397368624   0.0595526942950468    0.145581621832783  -0.0959599716523365 
71 1    0.847136073283423    0.679854391829849    0.500834880363641   -0.466817235019059   -0.487318084817302  0.00172290390781205 
72 1    0.829911357913716    0.832019459525782    0.353421286119442   0.0783461513928584   0.0351743816260786   -0.903230366352666 
73 1   0.0180244702344226  0.00930346029224438    0.677641922334033   -0.136416044715908   -0.292875877569676   -0.274184162201059 
74 1  0.00705317440736053    0.172042221761785    0.824152213706498    0.184838925229957 -0.00336886364112805    0.330477616250834 
75 1    0.179390620391132 -0.000718486327400569    0.843067189990279   0.0484481083721698    0.312642950600588   -0.620233049303068 
76 1    0.185195495249332    0.169115093101937    0.661316965781566   -0.147416566167499    0.219143498244103    0.335786532714783 
77 1  0.00987855560583739    0.322329590752474    0.656198344114046   -0.190776625712317    0.164870400740627   0.0558942817914386 
78 1  -0.0138780381424226    0.497358767321884    0.838972926679162    0.634318827087484   -0.178348985829577     -0.3470136428849 
79 1    0.169882080132084    0.332368382604386    0.826053257948388    -0.17191968754956    0.102169732491902  -0.0800050083086979 
80 1    0.144720702254403    0.508973942273542    0.661278067138483    0.327915339066166   -0.470341196433092     0.36423712786323 
81 1  -0.0205072648779492    0.660886703018718    0.668322409430971    0.611172860444626    0.180782140384994     0.14861801724359 
82 1 -0.00516383413776111    0.833510954234271    0.837787735668371   0.0528932008782177  -0.0138329951348341   -0.151814561599787 
83 1      0.1517043603302    0.663370535153717    0.839444902878085  -0.0544422464721121  -0.0400070172281207   -0.250033010914426 
84 1    0.171729996425711    0.841861554421143    0.669306676340852   -0.466650898098265  -0.0948075174077954    0.482246062634353 
85 1    0.340855630573515 -0.00550589764060305    0.668790287676529   0.0384788914243363   -0.019765533556286       0.185229029143 
86 1    0.349459362488005    0.162078662762269    0.827951222684192   -0.296405722919748    0.067361749098923    0.329752213659251 
87 1    0.496608928690193  -0.0133462625425977    0.835763882165338    0.336814724975326   0.0619100178550512   0.0223745292735542 
88 1    0.504670797620065    0.153137386441244    0.671870644652586   -0.272164895405042    0.168501767457131   -0.169467618012251 
89 1    0.346026837470163    0.332885967403968    0.662168823553202  -0.0447830242162259    0.199243640465671    0.180083772183851 
90 1    0.317377462158674    0.496633754142408    0.835618365274968    0.288804284016082    0.128237177189039   -0.260482477587266 
91 1    0.503424410019647    0.332291741845893    0.843782136976529   -0.266770610685763    0.160614742159083   -0.122540606355739 
92 1    0.518510392199687    0.500414401538819    0.655348739687838   -0.782335619251824    0.374862882671121    0.861300541932691 
93 1    0.305202933496957    0.667750825715075    0.668539377584693    0.726684233820289   -0.476775559116999    0.364336634157328 
94 1    0.345157028141784    0.831067847271697    0.829304410041459  -0.0855063630904229   -0.373711886077469   -0.146616841554767 
95 1    0.507695120546714    0.667661948160003    0.840490792526111   -0.234796498113893   -0.173051403862377   -0.275085737589853 
96 1    0.506225637218108    0.819556372617285    0.654845191119534   -0.310727329632709  0.00538317582030659    0.348302550392603 
97 1    0.665963217163721  0.00740560312658545    0.689040938229823    0.178358531032069   -0.632890526548978   -0.308336813219181 
98 1    0.656490373439624    0.172030065246645    0.835425732634008    0.164815123077307   -0.197482822991688    0.267652990871673 
99 1    0.841315897513141   0.0214053424951999    0.831226110803186   -0.058128561829329   -0.309321685535013    0.328032913473014 
100 1    0.841992533963094    0.148564336517097    0.646698886884451     0.05238505460931     0.49780371668225  -0.0102693909657579 
101 1    0.643180622859973    0.327864214155738    0.658216823694602    0.744368296768637   -0.278803672924827    0.340286026461016 
102 1    0.675589392835263    0.505291943534075    0.839353479460556   -0.613964321027543   0.0465163112791235   -0.675449311577881 
103 1    0.830496277939915    0.305407057083016    0.816474830782909   0.0744722921198613    0.436127165710542   -0.142503494082919 
104 1    0.827771365362992    0.491032799930622    0.671654017610422   -0.162138500831204   -0.179608775122167 -0.00943208908062472 
105 1    0.681820927142667    0.671251258493953    0.655352610640534   -0.146889101116687   -0.125044124285263   0.0770895517823813 
106 1    0.674265476929804    0.820599532291794      0.8310306593429  -0.0421734180118945    0.292928462217503    0.163040476283392 
107 1    0.837184309996132    0.661760409695376    0.828828102698139   -0.193981952920894    0.708030576583653   0.0802348283138397 
108 1    0.836720728221849    0.841866897541081    0.671246535093815   -0.087627671372744    0.172141752893839   0.0273002874374519 
ITEM: TIMESTEP
200
ITEM: NUMBER OF ATOMS
108
ITEM: BOX BOUNDS pp pp pp
-5.3853642872239149e-02 1.2203853642872229e+01
-5.3853642872239149e-02 1.2203853642872218e+01
-5.3853642872239149e-02 1.2203853642872218e+01
ITEM: ATOMS id type xsu ysu zsu fx fy fz 
1 1  0.00608790252044855   0.0113413092772134 -0.00750375921512614    0.306374869675596   -0.159927771209974     0.16770135598346 
2 1 -0.00606907598483986    0.164994502348577    0.153328617551779    0.594012394109992  -0.0114188803850208    0.246304462240117 
3 1    0.175333510257133 -0.00557326703847139    0.161334663569164   -0.454419366439086    0.814315245140431    0.172592571047813 
4 1    0.182645664033544     0.18408967117125   0.0155171575494251   -0.485944699826952    -0.33826861316444    0.302593189195833 