LAMMPS (17 Nov 2016)
units metal
dimension 3
boundary p p p
atom_style atomic
read_data structure.inp
  orthogonal box = (0 0 0) to (12.15 12.15 12.15)
  1 by 1 by 1 MPI processor grid
  reading atoms ...
  108 atoms
include potential.inp
pair_style eam/alloy
pair_coeff * * Al_lammps_2.eam Al
fix 1 all npt temp 400 400 1.0 iso 0.0 0.0 1.0
variable  dumptime equal 100
dump 1 all custom ${dumptime} dump.out id type xsu ysu zsu fx fy fz
dump 1 all custom 100 dump.out id type xsu ysu zsu fx fy fz
dump_modify 1 sort id format line "%d %d %20.15g %20.15g %20.15g %20.15g %20.15g %20.15g"
thermo_style custom step temp pe etotal pxx pyy pzz vol
thermo_modify format  float %20.15g
thermo 100
velocity all create 800 1339 dist gaussian
run 10000
Neighbor list info ...
  1 neighbor list requests
  update every 1 steps, delay 10 steps, check yes
  max neighbors/atom: 2000, page size: 100000
  master list distance cutoff = 8.5
  ghost atom cutoff = 8.5
  binsize = 4.25 -> bins = 3 3 3
Memory usage per processor = 3.93753 Mbytes
Step Temp PotEng TotEng Pxx Pyy Pzz Volume 
       0                  800    -362.821576160678    -351.756907748678     1805.34165254107     3497.89072473381     3463.59257381675          1793.613375 
     100     298.815355519655     -356.21906963104    -352.086203599491    -15645.7306085641    -15639.3192791773    -15219.5911798081     1902.44217450458 
     200      368.59975860493    -357.477912706324    -352.379870074191     2398.23541433581     1026.70864369328      3093.7260162308     1841.73753219173 
     300      345.55564859364    -357.042387416598     -352.26306407962     9962.71679992897     10169.0584177478     11404.4162593724     1825.78989183022 
     400     325.127990079637    -356.621349513642    -352.124557761528    -15121.0362425591    -17405.2026513211    -16210.6833467858     1897.62068407219 
     500     369.521996074921     -357.23319005675    -352.122392109864     17791.9249504524     15662.7663389328     16296.1930418517      1808.9198503576 
     600     325.278543619886    -356.704440100364    -352.205566066999    -8078.90696303897    -8723.20820312477    -8647.42727784933     1877.60541137783 
     700     366.365869197577    -357.299003213939    -352.231857138758     2012.64116144012     1397.94680958301     -738.12127599372     1846.54524953571 
     800     364.319096460025    -357.157113189425    -352.118275691313     4327.02394165796     4382.32849697133     3612.47278905684     1839.47586376384 
     900     328.625151307864    -356.479076171381     -351.93391575755    -7278.44698575014    -3261.67923703028    -7431.95990734651     1873.63065389062 
    1000     350.158673572314    -356.659723455395    -351.816736437065     9889.24127934699     10774.1872790013     8033.98001546281     1831.73278558754 
    1100     372.184192030519    -356.868510371299    -351.720892030042    -4271.43846412747    -5333.88541563694    -3541.27777578821       1866.056533373 
    1200     396.399275407915    -357.102284171565    -351.619750995133     -814.95247480379    -1286.13780908485     90.5603420822192     1856.07295969614 
    1300     427.517714809866    -357.412404703659    -351.499477510375    -2373.67247021544    -743.802339670373     2163.83519018636     1851.30064455405 
    1400     387.219259410279     -356.76044834931    -351.404882464167     -2393.0965621451    -3671.39492228261    -545.433807365342     1864.67526154355 
    1500       398.7713473547     -356.83948545549    -351.324144542132    -570.511695899777     1148.12611455744    -523.928576414071     1857.36166400155 
    1600     392.959468083671    -356.685616092681    -351.250658325554     1095.06331680847     3454.90800322418     2836.57698039257      1851.9410743037 
    1700     360.925891930231    -356.177778629866    -351.185871985474     206.074230065973    -1236.87548186515     58.8887427012698     1863.59790888817 
    1800     389.152364378486    -356.523886092278    -351.141583750286      2069.9646194539     45.0159142916536     3013.21006795514     1855.08002663947 
    1900     399.257769709911    -356.623044203921    -351.100975662977     332.315824821451     288.347273644505    -1599.80545298064     1858.90751562791 
    2000     382.801321316588    -356.349797032236    -351.055334922182     331.104410249011    -1222.63159460557     943.231662205536     1863.19387563099 
    2100     378.275201190866    -356.257909358117    -351.026047271043     4554.02235726248     3495.92774848994     459.406133709999     1852.07261388767 
    2200     415.949350036742    -356.757947202767    -351.005020159838    -258.919884331036    -4242.10809983374     -1467.6453202166     1861.95287600264 
    2300     407.845024297508    -356.616763122985    -350.975925676315    -1021.89299926782    -3478.59890992638    -1028.93871812945     1860.76216412071 
    2400     396.308418005542    -356.453998708062    -350.972722165417     1403.32330315434     1509.49944503825     2852.35509832917     1855.85466459235 
    2500      373.84161339338    -356.113392376689    -350.942850513183    -313.857576957869    -1771.19183709402     1930.07584844891     1864.59644487028 
    2600     466.043749173786    -357.352631089539    -350.906856651923     -1791.0367203173    -1711.36286703871    -1439.16901814108     1855.76010663487 
    2700     377.619150962008    -356.126557671526    -350.903769307257    -1226.87617133598    -2608.76188235298    -1941.79155532824      1869.1862323998 
    2800     420.263206436476    -356.722951545055    -350.910360263826      277.72191656247     503.159532378711     -1289.1061001541     1858.67036036421 
    2900     435.932734872481    -356.904294736912    -350.874980785286     1161.20395051311     468.611270582766     1163.69748018303     1852.50891060452 
    3000     401.030806941865    -356.391732251678    -350.845141124418    -5463.75491589927    -3930.43575267643    -5679.00869779985      1873.2716012108 
    3100     385.213184234492    -356.155212343044    -350.827392153687     8490.49768275431     4012.58912446433      8075.7115994947     1845.20769647374 
    3200     433.612620037552    -356.813715847952    -350.816491022985    -6640.91918959844    -6094.04476510441    -6792.37733712346     1873.87193983049 
    3300     440.276792687452    -356.902711892522     -350.81331599179     759.243897207707     319.415544392911    -1065.66328562242      1856.1977945177 
    3400     413.926780136806     -356.52937096639    -350.804417755064     1901.49969961479     1837.00183075699     553.984002479919     1854.69908074228 
    3500     417.702487475803    -356.560599129287    -350.783424730803    -4866.88763127883    -3487.36578557235    -5438.04102768897     1870.86310366678 
    3600     426.085151852349    -356.664248060623     -350.77113440997      5031.1992919642     5089.37274145561      4345.1801110654     1847.45791005309 
    3700     387.161327664335    -356.123713984594    -350.768949343899    -2244.70853634491    -1475.61479324262    -5656.99756696096      1871.3739990446 
    3800      448.74759106478    -356.981172793518    -350.774618673748     273.411958469948     921.037059579631    -45.4438925359457      1858.0402783313 
    3900     399.719511000777    -356.297774660784    -350.769319851996      1134.5030242113     2326.21160860435    -254.428336962487     1858.41546035665 
    4000     377.453421933663    -355.978715135867    -350.758218942529     189.579328203816    -151.715883170719    -382.961688491428     1865.15539856888 
    4100     403.292156548624    -356.330637552259    -350.752770070545     3108.36489211513     2555.22352123774     2817.34165269587      1854.6831685816 
    4200     405.263440374731    -356.370412995205    -350.765281011139    -874.758070641986    -1953.03681399697    -2669.72401097659     1868.16432884467 
    4300     371.863317800982     -355.91961270414    -350.776432321572     5818.28982644465     1720.42808643648     3879.17960237711     1856.65869139449 
    4400     436.501333924733    -356.814249008749    -350.777070857158    -2559.75940542982    -2466.16344402713     465.226280286055     1860.97688764145 
    4500     411.871751363854    -356.476015408776    -350.779484962388    -6708.25128517231    -4081.95765798272    -2056.73427697084     1871.72785704152 
    4600     428.849934103333    -356.722417155488    -350.791064256286      5061.9891722221     3487.76176448858     5800.38327230194     1845.73630106038 
    4700     418.220872480786    -356.613413565696    -350.829069469475    -5467.57100378906    -4988.85605208687    -7936.29217412919     1873.01977731611 
    4800     386.986807995826     -356.21116885975    -350.858817971885     2715.52850093827     631.041277749865     4281.41124442755     1856.19833523877 
    4900     382.593552825293    -356.166789505103    -350.875201006877     3761.32608666627     2422.64128934133     4539.06278824023     1852.42701158042 
    5000     383.360605617181    -356.196269080369    -350.894071601147    -4958.50165443212    -7478.77433934028    -3013.77713801646     1874.34946082878 
    5100     434.353276357609    -356.925651975052    -350.918183254349     6417.64381359585     4098.15874545592     4903.96398109485     1841.80653042196 
    5200     409.526166682297    -356.644704751133    -350.980615700661    -2747.64645660786    -6106.34320971623    -1208.82387069854     1868.37836844766 
    5300     402.498039116247    -356.600077900516    -351.033193726389    -1992.89905455425    -3757.98778245549     -1782.7082578793     1865.40716861675 
    5400     405.820611123949    -356.689296874427    -351.076458753375     8859.75293317641     2989.76747584969     7305.04123564661     1841.44131140816 
    5500     371.769380702859    -356.284500822017    -351.142619668002    -8418.76167317731    -9660.81704025452    -7212.76296146082     1884.39724976796 
    5600     397.427210017624     -356.74338225175    -351.246631880811     7756.92571741278     2930.95346177558      4711.6967433961     1844.29642980402 
    5700     416.141453267627    -357.083725131689    -351.328141140571     2036.51413185834    -266.359377765558    -781.737853847577     1853.42677821716 
    5800     363.730282394867     -356.38258385529    -351.351890147663    -6152.61456802258    -6762.00138576485    -6296.63330770719     1877.21119355156 
    5900     380.248701749338      -356.6486497251    -351.389492476412     11784.6738212301     12401.6226659839     10766.8846950936     1829.13056402588 
    6000     347.662613683717    -356.293933315092    -351.485468890518    -7256.94651128428    -5888.37080532855    -7585.47289597819     1880.31129642627 
    6100      382.10744322042     -356.88923825391    -351.604373057671      1103.7552950991     164.938101984255     1570.05916088409     1853.01243618381 
    6200     435.945640955865    -357.661372941998    -351.631880488457     5308.43327392629      2744.1471096279     3724.34951490218     1838.26360463112 
    6300     346.636212536308    -356.439113542454    -351.644845103322    -8369.63483956807    -12135.1467268729    -8849.49395803705     1885.91983919052 
    6400     376.956701770248    -356.948834889727    -351.735208751265     10506.9701026629     10682.7362797086     10479.4412317214     1825.45818589358 
    6500     352.396215830289    -356.750528847822    -351.876594750565    -2421.92809179508     -1694.4289328902    -3811.08256174215     1862.97515547879 
    6600     368.573571410397    -357.007578584305    -351.909898142951    -4499.76368974612    -3888.19970157365    -5572.19904151752     1865.55787813461 
    6700     373.618384592028    -357.051660503077    -351.884206080405     8613.80234105023     8576.00086422509     10003.9517116069     1828.77185358019 
    6800       365.6101627248    -356.951295678807    -351.894601655548    -8045.06751665628    -7963.35899325913    -9158.70089157912     1876.66165097936 
    6900     382.243935168704    -357.226464057195     -351.93971106327     5143.84811516277     3862.73557384178     3865.89506809562     1840.81133263543 
    7000     376.428994358448    -357.178366723577    -351.972039219529    -1496.16658572135    -1451.14739664737     -1592.5951040407     1856.36399189849 
    7100     364.644162034586    -357.020863200368    -351.977529773763    -2386.69607753931    -4014.98196450116    -2621.04977206608     1861.30760047187 
    7200     391.722634393909    -357.384001370064    -351.966150046259     4624.95466920089     3157.74237983486     2594.85173709014     1841.39129315724 
    7300     353.901805813935    -356.853124185139    -351.958366520465    -2765.36682747549    -3308.70232200227    -5759.41075078843     1867.51877132078 
    7400     382.659415914335    -357.250804840595    -351.958305400818    -24.2931540586029     2229.91794285823     2692.00713210141     1848.23152693957 
    7500     374.448029649009    -357.107983096635    -351.929053989643     1167.12442255693     533.345136206283    -1131.82726610828     1853.25236232498 
    7600     383.726015017111    -357.188729375226    -351.881477978698    -3932.11507070833    -2709.01023082621    -3598.89693578725     1860.29378323706 
    7700     386.503821667269    -357.160593808418    -351.814923025019     6028.68321456185     5203.69086446264     3342.27507577637     1841.35028368334 
    7800     362.439262853726    -356.755285180442    -351.742447351735    -987.400157371846     -3060.7945659022    -7457.82232842102     1867.49616676301 
    7900     384.830250236862    -356.986610478513    -351.664086586291     512.243698678038     1118.38928993694     1280.78532481658     1853.24570689322 
    8000      382.24177513323    -356.847324171668    -351.560601052839    -187.360598085685      1425.6372610113     1320.33007749746     1853.73831219652 
    8100     362.718340218098    -356.448338108836    -351.431640407006    -988.577326900638    -2224.46602898014    -1384.44632871845     1863.79783491354 
    8200     379.627499039353    -356.547292615993    -351.296727119809     3644.45673575627     3360.82999408316     3484.24282873468     1849.35431985603 
    8300     409.474822897544    -356.830204613762    -351.166825690732    -3731.22944731649    -2346.47881756664    -3188.43208818579     1864.21917691048 
    8400     352.037344913093    -355.895954707506    -351.026984094875     2853.15446995852     3766.32453353731     5093.94018344558     1857.51704554894 
    8500     420.035638500715     -356.70602521332    -350.896581386779     -998.54917633533    -808.702504341793    -2391.23637318503     1861.37482646459 
    8600     391.015408079761    -356.189012222277    -350.780942429295     455.165234611987     971.304473170182     1777.77034088124     1861.95180469796 
    8700     417.163944397792    -356.454747990801    -350.685022093046    -2480.36700689313      540.52721431637      -5906.839764495     1868.04250168243 
    8800     434.870053332263    -356.614378206618     -350.59976202858     3020.51484105393     2549.93081193951     1796.48724142373     1854.01523313106 
    8900     393.929294379279    -355.983589913561    -350.535218638461    -1911.30655474087    -1308.93833883681    -2925.15239881592     1867.99003795409 
    9000     454.075929995321    -356.764593818192    -350.484344319106      615.64120175595     644.935031218662    -1263.20481200176      1858.6525157721 
    9100     380.505994897458    -355.713949106252    -350.451233278354     4928.39339986556      2126.8667031699    -2165.84385808513     1865.46926038096 
    9200     424.430821851273    -356.296775919799    -350.426543035278    -2275.24959356564    -2471.87407585941    -4571.41583728946     1869.57107987788 
    9300     410.923661485334    -356.074482141978    -350.391064570752     5218.96414425756     4693.49244957274     5964.05952745538     1849.98307687854 
    9400     395.452105585892    -355.838672152482    -350.369239126063    -5362.58329549786    -6673.07106551541    -6040.06352067824     1882.99589292993 
    9500     435.889718829183    -356.409403306332    -350.380684302526     5953.22028452689      3289.9407517308     7024.55661664846     1847.79042105704 
    9600     387.606968418146    -355.757008353411    -350.396080128752     943.041317796459    -1417.18179350109     601.452598613619     1867.26655312115 
    9700     429.725438200803    -356.331259099522    -350.387797247155    -3660.19712328667    -3385.34934872879    -2004.08676577358     1872.60853086026 
    9800     416.500491812201    -356.130448068571      -350.3698982744     6765.33305788201     5132.58416028453     4641.15415298861     1850.38459611883 
    9900     413.214573193974    -356.089337158718    -350.374234364471    -6557.42883866721    -4172.64890045029     -6048.9759692217     1880.11150681238 
   10000     472.541554950129    -356.937056305519    -350.401411785002      2126.3100796537     3349.93880740885     3719.22582351142     1850.11516880371 
Loop time of 2.57889 on 1 procs for 10000 steps with 108 atoms

Performance: 335.028 ns/day, 0.072 hours/ns, 3877.634 timesteps/s
99.9% CPU use with 1 MPI tasks x no OpenMP threads

MPI task timing breakdown:
Section |  min time  |  avg time  |  max time  |%varavg| %total
---------------------------------------------------------------
Pair    | 2.3949     | 2.3949     | 2.3949     |   0.0 | 92.87
Neigh   | 0          | 0          | 0          |   0.0 |  0.00
Comm    | 0.069584   | 0.069584   | 0.069584   |   0.0 |  2.70
Output  | 0.033598   | 0.033598   | 0.033598   |   0.0 |  1.30
Modify  | 0.062247   | 0.062247   | 0.062247   |   0.0 |  2.41
Other   |            | 0.01857    |            |       |  0.72

Nlocal:    108 ave 108 max 108 min
Histogram: 1 0 0 0 0 0 0 0 0 0
Nghost:    1580 ave 1580 max 1580 min
Histogram: 1 0 0 0 0 0 0 0 0 0
Neighs:    7560 ave 7560 max 7560 min
Histogram: 1 0 0 0 0 0 0 0 0 0

Total # of neighbors = 7560
Ave neighs/atom = 70
Neighbor list builds = 0
Dangerous builds = 0
Total wall time: 0:00:02
