ToDo                                    
   1.00000000000000     
     2.800000    0.000000    0.000000
     0.000000    2.800000    0.000000
     0.000000    0.000000    2.800000
   Fe
     2
Direct
  0.000000  0.000000  0.000000
  0.500000  0.500000  0.500000
 
   28   28   28
  184.34      177.10      156.94      127.95      95.650      65.349      40.898      23.971      14.132      9.5221    
  7.7282      6.7211      6.0685      5.7269      5.6235      5.7269      6.0685      6.7211      7.7282      9.5221    
  14.132      23.971      40.898      65.349      95.650      127.95      156.94      177.10      177.10      170.21    
  150.97      123.26      92.282      63.143      39.585      23.273      13.820      9.4176      7.6955      6.6998    
  6.0594      5.7258      5.6250      5.7258      6.0594      6.6998      7.6955      9.4176      13.820      23.273    
  39.585      63.143      92.282      123.26      150.97      170.21      156.94      150.97      134.26      110.03    
  82.719      56.838      35.819      21.283      12.945      9.1318      7.5956      6.6367      6.0327      5.7223    
  5.6291      5.7223      6.0327      6.6367      7.5956      9.1318      12.945      21.283      35.819      56.838    
  82.719      110.03      134.26      150.97      127.95      123.26      110.03      90.644      68.545      47.401    
  30.170      18.337      11.695      8.7395      7.4250      6.5352      5.9908      5.7162      5.6346      5.7162    
  5.9908      6.5352      7.4250      8.7395      11.695      18.337      30.170      47.401      68.545      90.644    
  110.03      123.26      95.650      92.282      82.719      68.545      52.192      36.440      23.646      15.028    
  10.369      8.3219      7.1893      6.4038      5.9378      5.7077      5.6401      5.7077      5.9378      6.4038    
  7.1893      8.3219      10.369      15.028      23.646      36.440      52.192      68.545      82.719      92.282    
  65.349      63.143      56.838      47.401      36.440      25.907      17.505      12.061      9.2560      7.8836    
  6.9096      6.2571      5.8800      5.6974      5.6444      5.6974      5.8800      6.2571      6.9096      7.8836    
  9.2560      12.061      17.505      25.907      36.440      47.401      56.838      63.143      40.898      39.585    
  35.819      30.170      23.646      17.505      12.807      9.9369      8.4334      7.3964      6.6181      6.1117    
  5.8241      5.6865      5.6469      5.6865      5.8241      6.1117      6.6181      7.3964      8.4334      9.9369    
  12.807      17.505      23.646      30.170      35.819      39.585      23.971      23.273      21.283      18.337    
  15.028      12.061      9.9369      8.6482      7.7030      6.9177      6.3476      5.9822      5.7754      5.6763    
  5.6478      5.6763      5.7754      5.9822      6.3476      6.9177      7.7030      8.6482      9.9369      12.061    
  15.028      18.337      21.283      23.273      14.132      13.820      12.945      11.695      10.369      9.2560    
  8.4334      7.7030      7.0360      6.5020      6.1211      5.8767      5.7362      5.6672      5.6469      5.6672    
  5.7362      5.8767      6.1211      6.5020      7.0360      7.7030      8.4334      9.2560      10.369      11.695    
  12.945      13.820      9.5221      9.4176      9.1318      8.7395      8.3219      7.8836      7.3964      6.9177    
  6.5020      6.1776      5.9471      5.7963      5.7058      5.6588      5.6444      5.6588      5.7058      5.7963    
  5.9471      6.1776      6.5020      6.9177      7.3964      7.8836      8.3219      8.7395      9.1318      9.4176    
  7.7282      7.6955      7.5956      7.4250      7.1893      6.9096      6.6181      6.3476      6.1211      5.9471    
  5.8222      5.7369      5.6817      5.6504      5.6401      5.6504      5.6817      5.7369      5.8222      5.9471    
  6.1211      6.3476      6.6181      6.9096      7.1893      7.4250      7.5956      7.6955      6.7211      6.6998    
  6.6367      6.5352      6.4038      6.2571      6.1117      5.9822      5.8767      5.7963      5.7369      5.6931    
  5.6615      5.6416      5.6346      5.6416      5.6615      5.6931      5.7369      5.7963      5.8767      5.9822    
  6.1117      6.2571      6.4038      6.5352      6.6367      6.6998      6.0685      6.0594      6.0327      5.9908    
  5.9378      5.8800      5.8241      5.7754      5.7362      5.7058      5.6817      5.6615      5.6449      5.6333    
  5.6291      5.6333      5.6449      5.6615      5.6817      5.7058      5.7362      5.7754      5.8241      5.8800    
  5.9378      5.9908      6.0327      6.0594      5.7269      5.7258      5.7223      5.7162      5.7077      5.6974    
  5.6865      5.6763      5.6672      5.6588      5.6504      5.6416      5.6333      5.6272      5.6250      5.6272    
  5.6333      5.6416      5.6504      5.6588      5.6672      5.6763      5.6865      5.6974      5.7077      5.7162    
  5.7223      5.7258      5.6235      5.6250      5.6291      5.6346      5.6401      5.6444      5.6469      5.6478    
  5.6469      5.6444      5.6401      5.6346      5.6291      5.6250      5.6235      5.6250      5.6291      5.6346    
  5.6401      5.6444      5.6469      5.6478      5.6469      5.6444      5.6401      5.6346      5.6291      5.6250    
  5.7269      5.7258      5.7223      5.7162      5.7077      5.6974      5.6865      5.6763      5.6672      5.6588    
  5.6504      5.6416      5.6333      5.6272      5.6250      5.6272      5.6333      5.6416      5.6504      5.6588    
  5.6672      5.6763      5.6865      5.6974      5.7077      5.7162      5.7223      5.7258      6.0685      6.0594    
  6.0327      5.9908      5.9378      5.8800      5.8241      5.7754      5.7362      5.7058      5.6817      5.6615    
  5.6449      5.6333      5.6291      5.6333      5.6449      5.6615      5.6817      5.7058      5.7362      5.7754    
  5.8241      5.8800      5.9378      5.9908      6.0327      6.0594      6.7211      6.6998      6.6367      6.5352    
  6.4038      6.2571      6.1117      5.9822      5.8767      5.7963      5.7369      5.6931      5.6615      5.6416    
  5.6346      5.6416      5.6615      5.6931      5.7369      5.7963      5.8767      5.9822      6.1117      6.2571    
  6.4038      6.5352      6.6367      6.6998      7.7282      7.6955      7.5956      7.4250      7.1893      6.9096    
  6.6181      6.3476      6.1211      5.9471      5.8222      5.7369      5.6817      5.6504      5.6401      5.6504    
  5.6817      5.7369      5.8222      5.9471      6.1211      6.3476      6.6181      6.9096      7.1893      7.4250    
  7.5956      7.6955      9.5221      9.4176      9.1318      8.7395      8.3219      7.8836      7.3964      6.9177    
  6.5020      6.1776      5.9471      5.7963      5.7058      5.6588      5.6444      5.6588      5.7058      5.7963    
  5.9471      6.1776      6.5020      6.9177      7.3964      7.8836      8.3219      8.7395      9.1318      9.4176    
  14.132      13.820      12.945      11.695      10.369      9.2560      8.4334      7.7030      7.0360      6.5020    
  6.1211      5.8767      5.7362      5.6672      5.6469      5.6672      5.7362      5.8767      6.1211      6.5020    
  7.0360      7.7030      8.4334      9.2560      10.369      11.695      12.945      13.820      23.971      23.273    
  21.283      18.337      15.028      12.061      9.9369      8.6482      7.7030      6.9177      6.3476      5.9822    
  5.7754      5.6763      5.6478      5.6763      5.7754      5.9822      6.3476      6.9177      7.7030      8.6482    
  9.9369      12.061      15.028      18.337      21.283      23.273      40.898      39.585      35.819      30.170    
  23.646      17.505      12.807      9.9369      8.4334      7.3964      6.6181      6.1117      5.8241      5.6865    
  5.6469      5.6865      5.8241      6.1117      6.6181      7.3964      8.4334      9.9369      12.807      17.505    
  23.646      30.170      35.819      39.585      65.349      63.143      56.838      47.401      36.440      25.907    
  17.505      12.061      9.2560      7.8836      6.9096      6.2571      5.8800      5.6974      5.6444      5.6974    
  5.8800      6.2571      6.9096      7.8836      9.2560      12.061      17.505      25.907      36.440      47.401    
  56.838      63.143      95.650      92.282      82.719      68.545      52.192      36.440      23.646      15.028    
  10.369      8.3219      7.1893      6.4038      5.9378      5.7077      5.6401      5.7077      5.9378      6.4038    
  7.1893      8.3219      10.369      15.028      23.646      36.440      52.192      68.545      82.719      92.282    
  127.95      123.26      110.03      90.644      68.545      47.401      30.170      18.337      11.695      8.7395    
  7.4250      6.5352      5.9908      5.7162      5.6346      5.7162      5.9908      6.5352      7.4250      8.7395    
  11.695      18.337      30.170      47.401      68.545      90.644      110.03      123.26      156.94      150.97    
  134.26      110.03      82.719      56.838      35.819      21.283      12.945      9.1318      7.5956      6.6367    
  6.0327      5.7223      5.6291      5.7223      6.0327      6.6367      7.5956      9.1318      12.945      21.283    
  35.819      56.838      82.719      110.03      134.26      150.97      177.10      170.21      150.97      123.26    
  92.282      63.143      39.585      23.273      13.820      9.4176      7.6955      6.6998      6.0594      5.7258    
  5.6250      5.7258      6.0594      6.6998      7.6955      9.4176      13.820      23.273      39.585      63.143    
  92.282      123.26      150.97      170.21      177.10      170.21      150.97      123.26      92.282      63.143    
  39.585      23.273      13.820      9.4176      7.6955      6.6998      6.0594      5.7258      5.6250      5.7258    
  6.0594      6.6998      7.6955      9.4176      13.820      23.273      39.585      63.143      92.282      123.26    
  150.97      170.21      170.21      163.64      145.27      118.76      89.040      61.011      38.313      22.599    
  13.522      9.3202      7.6644      6.6800      6.0514      5.7255      5.6272      5.7255      6.0514      6.6800    
  7.6644      9.3202      13.522      22.599      38.313      61.011      89.040      118.76      145.27      163.64    
  150.97      145.27      129.29      106.06      79.829      54.917      34.667      20.678      12.687      9.0542    
  7.5682      6.6209      6.0279      5.7242      5.6333      5.7242      6.0279      6.6209      7.5682      9.0542    
  12.687      20.678      34.667      54.917      79.829      106.06      129.29      145.27      123.26      118.76    
  106.06      87.438      66.169      45.802      29.210      17.845      11.500      8.6886      7.4033      6.5251    
  5.9902      5.7213      5.6416      5.7213      5.9902      6.5251      7.4033      8.6886      11.500      17.845    
  29.210      45.802      66.169      87.438      106.06      118.76      92.282      89.040      79.829      66.169    
  50.405      35.229      22.930      14.681      10.249      8.2944      7.1750      6.4005      5.9423      5.7165    
  5.6504      5.7165      5.9423      6.4005      7.1750      8.2944      10.249      14.681      22.930      35.229    
  50.405      66.169      79.829      89.040      63.143      61.011      54.917      45.802      35.229      25.095    
  17.046      11.862      9.2013      7.8664      6.9040      6.2612      5.8903      5.7108      5.6588      5.7108    
  5.8903      6.2612      6.9040      7.8664      9.2013      11.862      17.046      25.095      35.229      45.802    
  54.917      61.011      39.585      38.313      34.667      29.210      22.930      17.046      12.572      9.8550    
  8.4139      7.3890      6.6223      6.1241      5.8414      5.7061      5.6672      5.7061      5.8414      6.1241    
  6.6223      7.3890      8.4139      9.8550      12.572      17.046      22.930      29.210      34.667      38.313    
  23.273      22.599      20.678      17.845      14.681      11.862      9.8550      8.6261      7.6944      6.9219    
  6.3623      6.0041      5.8014      5.7043      5.6763      5.7043      5.8014      6.0041      6.3623      6.9219    
  7.6944      8.6261      9.8550      11.862      14.681      17.845      20.678      22.599      13.820      13.522    
  12.687      11.500      10.249      9.2013      8.4139      7.6944      7.0401      6.5181      6.1468      5.9092    
  5.7729      5.7061      5.6865      5.7061      5.7729      5.9092      6.1468      6.5181      7.0401      7.6944    
  8.4139      9.2013      10.249      11.500      12.687      13.522      9.4176      9.3202      9.0542      8.6886    
  8.2944      7.8664      7.3890      6.9219      6.5181      6.2048      5.9837      5.8402      5.7549      5.7108    
  5.6974      5.7108      5.7549      5.8402      5.9837      6.2048      6.5181      6.9219      7.3890      7.8664    
  8.2944      8.6886      9.0542      9.3202      7.6955      7.6644      7.5682      7.4033      7.1750      6.9040    
  6.6223      6.3623      6.1468      5.9837      5.8690      5.7924      5.7438      5.7165      5.7077      5.7165    
  5.7438      5.7924      5.8690      5.9837      6.1468      6.3623      6.6223      6.9040      7.1750      7.4033    
  7.5682      7.6644      6.6998      6.6800      6.6209      6.5251      6.4005      6.2612      6.1241      6.0041    
  5.9092      5.8402      5.7924      5.7592      5.7360      5.7213      5.7162      5.7213      5.7360      5.7592    
  5.7924      5.8402      5.9092      6.0041      6.1241      6.2612      6.4005      6.5251      6.6209      6.6800    
  6.0594      6.0514      6.0279      5.9902      5.9423      5.8903      5.8414      5.8014      5.7729      5.7549    
  5.7438      5.7360      5.7293      5.7242      5.7223      5.7242      5.7293      5.7360      5.7438      5.7549    
  5.7729      5.8014      5.8414      5.8903      5.9423      5.9902      6.0279      6.0514      5.7258      5.7255    
  5.7242      5.7213      5.7165      5.7108      5.7061      5.7043      5.7061      5.7108      5.7165      5.7213    
  5.7242      5.7255      5.7258      5.7255      5.7242      5.7213      5.7165      5.7108      5.7061      5.7043    
  5.7061      5.7108      5.7165      5.7213      5.7242      5.7255      5.6250      5.6272      5.6333      5.6416    
  5.6504      5.6588      5.6672      5.6763      5.6865      5.6974      5.7077      5.7162      5.7223      5.7258    
  5.7269      5.7258      5.7223      5.7162      5.7077      5.6974      5.6865      5.6763      5.6672      5.6588    
  5.6504      5.6416      5.6333      5.6272      5.7258      5.7255      5.7242      5.7213      5.7165      5.7108    
  5.7061      5.7043      5.7061      5.7108      5.7165      5.7213      5.7242      5.7255      5.7258      5.7255    
  5.7242      5.7213      5.7165      5.7108      5.7061      5.7043      5.7061      5.7108      5.7165      5.7213    
  5.7242      5.7255      6.0594      6.0514      6.0279      5.9902      5.9423      5.8903      5.8414      5.8014    
  5.7729      5.7549      5.7438      5.7360      5.7293      5.7242      5.7223      5.7242      5.7293      5.7360    
  5.7438      5.7549      5.7729      5.8014      5.8414      5.8903      5.9423      5.9902      6.0279      6.0514    
  6.6998      6.6800      6.6209      6.5251      6.4005      6.2612      6.1241      6.0041      5.9092      5.8402    
  5.7924      5.7592      5.7360      5.7213      5.7162      5.7213      5.7360      5.7592      5.7924      5.8402    
  5.9092      6.0041      6.1241      6.2612      6.4005      6.5251      6.6209      6.6800      7.6955      7.6644    
  7.5682      7.4033      7.1750      6.9040      6.6223      6.3623      6.1468      5.9837      5.8690      5.7924    
  5.7438      5.7165      5.7077      5.7165      5.7438      5.7924      5.8690      5.9837      6.1468      6.3623    
  6.6223      6.9040      7.1750      7.4033      7.5682      7.6644      9.4176      9.3202      9.0542      8.6886    
  8.2944      7.8664      7.3890      6.9219      6.5181      6.2048      5.9837      5.8402      5.7549      5.7108    
  5.6974      5.7108      5.7549      5.8402      5.9837      6.2048      6.5181      6.9219      7.3890      7.8664    
  8.2944      8.6886      9.0542      9.3202      13.820      13.522      12.687      11.500      10.249      9.2013    
  8.4139      7.6944      7.0401      6.5181      6.1468      5.9092      5.7729      5.7061      5.6865      5.7061    
  5.7729      5.9092      6.1468      6.5181      7.0401      7.6944      8.4139      9.2013      10.249      11.500    
  12.687      13.522      23.273      22.599      20.678      17.845      14.681      11.862      9.8550      8.6261    
  7.6944      6.9219      6.3623      6.0041      5.8014      5.7043      5.6763      5.7043      5.8014      6.0041    
  6.3623      6.9219      7.6944      8.6261      9.8550      11.862      14.681      17.845      20.678      22.599    
  39.585      38.313      34.667      29.210      22.930      17.046      12.572      9.8550      8.4139      7.3890    
  6.6223      6.1241      5.8414      5.7061      5.6672      5.7061      5.8414      6.1241      6.6223      7.3890    
  8.4139      9.8550      12.572      17.046      22.930      29.210      34.667      38.313      63.143      61.011    
  54.917      45.802      35.229      25.095      17.046      11.862      9.2013      7.8664      6.9040      6.2612    
  5.8903      5.7108      5.6588      5.7108      5.8903      6.2612      6.9040      7.8664      9.2013      11.862    
  17.046      25.095      35.229      45.802      54.917      61.011      92.282      89.040      79.829      66.169    
  50.405      35.229      22.930      14.681      10.249      8.2944      7.1750      6.4005      5.9423      5.7165    
  5.6504      5.7165      5.9423      6.4005      7.1750      8.2944      10.249      14.681      22.930      35.229    
  50.405      66.169      79.829      89.040      123.26      118.76      106.06      87.438      66.169      45.802    
  29.210      17.845      11.500      8.6886      7.4033      6.5251      5.9902      5.7213      5.6416      5.7213    
  5.9902      6.5251      7.4033      8.6886      11.500      17.845      29.210      45.802      66.169      87.438    
  106.06      118.76      150.97      145.27      129.29      106.06      79.829      54.917      34.667      20.678    
  12.687      9.0542      7.5682      6.6209      6.0279      5.7242      5.6333      5.7242      6.0279      6.6209    
  7.5682      9.0542      12.687      20.678      34.667      54.917      79.829      106.06      129.29      145.27    
  170.21      163.64      145.27      118.76      89.040      61.011      38.313      22.599      13.522      9.3202    
  7.6644      6.6800      6.0514      5.7255      5.6272      5.7255      6.0514      6.6800      7.6644      9.3202    
  13.522      22.599      38.313      61.011      89.040      118.76      145.27      163.64      156.94      150.97    
  134.26      110.03      82.719      56.838      35.819      21.283      12.945      9.1318      7.5956      6.6367    
  6.0327      5.7223      5.6291      5.7223      6.0327      6.6367      7.5956      9.1318      12.945      21.283    
  35.819      56.838      82.719      110.03      134.26      150.97      150.97      145.27      129.29      106.06    
  79.829      54.917      34.667      20.678      12.687      9.0542      7.5682      6.6209      6.0279      5.7242    
  5.6333      5.7242      6.0279      6.6209      7.5682      9.0542      12.687      20.678      34.667      54.917    
  79.829      106.06      129.29      145.27      134.26      129.29      115.30      94.852      71.611      49.431    
  31.377      18.965      11.970      8.8424      7.4830      6.5730      6.0130      5.7293      5.6449      5.7293    
  6.0130      6.5730      7.4830      8.8424      11.970      18.965      31.377      49.431      71.611      94.852    
  115.30      129.29      110.03      106.06      94.852      78.337      59.406      41.244      26.486      16.467    
  10.966      8.5478      7.3354      6.4940      5.9882      5.7360      5.6615      5.7360      5.9882      6.4940    
  7.3354      8.5478      10.966      16.467      26.486      41.244      59.406      78.337      94.852      106.06    
  82.719      79.829      71.611      59.406      45.317      31.792      20.915      13.721      9.9242      8.2117    
  7.1304      6.3906      5.9565      5.7438      5.6817      5.7438      5.9565      6.3906      7.1304      8.2117    
  9.9242      13.721      20.915      31.792      45.317      59.406      71.611      79.829      56.838      54.917    
  49.431      41.244      31.792      22.810      15.772      11.322      9.0536      7.8120      6.8880      6.2760    
  5.9245      5.7549      5.7058      5.7549      5.9245      6.2760      6.8880      7.8120      9.0536      11.322    
  15.772      22.810      31.792      41.244      49.431      54.917      35.819      34.667      31.377      26.486    
  20.915      15.772      11.935      9.6371      8.3528      7.3684      6.6392      6.1677      5.9006      5.7729    
  5.7362      5.7729      5.9006      6.1677      6.6392      7.3684      8.3528      9.6371      11.935      15.772    
  20.915      26.486      31.377      34.667      21.283      20.678      18.965      16.467      13.721      11.322    
  9.6371      8.5608      7.6709      6.9406      6.4154      6.0806      5.8917      5.8014      5.7754      5.8014    
  5.8917      6.0806      6.4154      6.9406      7.6709      8.5608      9.6371      11.322      13.721      16.467    
  18.965      20.678      12.945      12.687      11.970      10.966      9.9242      9.0536      8.3528      7.6709    
  7.0593      6.5770      6.2375      6.0225      5.9006      5.8414      5.8241      5.8414      5.9006      6.0225    
  6.2375      6.5770      7.0593      7.6709      8.3528      9.0536      9.9242      10.966      11.970      12.687    
  9.1318      9.0542      8.8424      8.5478      8.2117      7.8120      7.3684      6.9406      6.5770      6.3009    
  6.1115      5.9927      5.9245      5.8903      5.8800      5.8903      5.9245      5.9927      6.1115      6.3009    
  6.5770      6.9406      7.3684      7.8120      8.2117      8.5478      8.8424      9.0542      7.5956      7.5682    
  7.4830      7.3354      7.1304      6.8880      6.6392      6.4154      6.2375      6.1115      6.0311      5.9836    
  5.9565      5.9423      5.9378      5.9423      5.9565      5.9836      6.0311      6.1115      6.2375      6.4154    
  6.6392      6.8880      7.1304      7.3354      7.4830      7.5682      6.6367      6.6209      6.5730      6.4940    
  6.3906      6.2760      6.1677      6.0806      6.0225      5.9927      5.9836      5.9848      5.9882      5.9902    
  5.9908      5.9902      5.9882      5.9848      5.9836      5.9927      6.0225      6.0806      6.1677      6.2760    
  6.3906      6.4940      6.5730      6.6209      6.0327      6.0279      6.0130      5.9882      5.9565      5.9245    
  5.9006      5.8917      5.9006      5.9245      5.9565      5.9882      6.0130      6.0279      6.0327      6.0279    
  6.0130      5.9882      5.9565      5.9245      5.9006      5.8917      5.9006      5.9245      5.9565      5.9882    
  6.0130      6.0279      5.7223      5.7242      5.7293      5.7360      5.7438      5.7549      5.7729      5.8014    
  5.8414      5.8903      5.9423      5.9902      6.0279      6.0514      6.0594      6.0514      6.0279      5.9902    
  5.9423      5.8903      5.8414      5.8014      5.7729      5.7549      5.7438      5.7360      5.7293      5.7242    
  5.6291      5.6333      5.6449      5.6615      5.6817      5.7058      5.7362      5.7754      5.8241      5.8800    
  5.9378      5.9908      6.0327      6.0594      6.0685      6.0594      6.0327      5.9908      5.9378      5.8800    
  5.8241      5.7754      5.7362      5.7058      5.6817      5.6615      5.6449      5.6333      5.7223      5.7242    
  5.7293      5.7360      5.7438      5.7549      5.7729      5.8014      5.8414      5.8903      5.9423      5.9902    
  6.0279      6.0514      6.0594      6.0514      6.0279      5.9902      5.9423      5.8903      5.8414      5.8014    
  5.7729      5.7549      5.7438      5.7360      5.7293      5.7242      6.0327      6.0279      6.0130      5.9882    
  5.9565      5.9245      5.9006      5.8917      5.9006      5.9245      5.9565      5.9882      6.0130      6.0279    
  6.0327      6.0279      6.0130      5.9882      5.9565      5.9245      5.9006      5.8917      5.9006      5.9245    
  5.9565      5.9882      6.0130      6.0279      6.6367      6.6209      6.5730      6.4940      6.3906      6.2760    
  6.1677      6.0806      6.0225      5.9927      5.9836      5.9848      5.9882      5.9902      5.9908      5.9902    
  5.9882      5.9848      5.9836      5.9927      6.0225      6.0806      6.1677      6.2760      6.3906      6.4940    
  6.5730      6.6209      7.5956      7.5682      7.4830      7.3354      7.1304      6.8880      6.6392      6.4154    
  6.2375      6.1115      6.0311      5.9836      5.9565      5.9423      5.9378      5.9423      5.9565      5.9836    
  6.0311      6.1115      6.2375      6.4154      6.6392      6.8880      7.1304      7.3354      7.4830      7.5682    
  9.1318      9.0542      8.8424      8.5478      8.2117      7.8120      7.3684      6.9406      6.5770      6.3009    
  6.1115      5.9927      5.9245      5.8903      5.8800      5.8903      5.9245      5.9927      6.1115      6.3009    
  6.5770      6.9406      7.3684      7.8120      8.2117      8.5478      8.8424      9.0542      12.945      12.687    
  11.970      10.966      9.9242      9.0536      8.3528      7.6709      7.0593      6.5770      6.2375      6.0225    
  5.9006      5.8414      5.8241      5.8414      5.9006      6.0225      6.2375      6.5770      7.0593      7.6709    
  8.3528      9.0536      9.9242      10.966      11.970      12.687      21.283      20.678      18.965      16.467    
  13.721      11.322      9.6371      8.5608      7.6709      6.9406      6.4154      6.0806      5.8917      5.8014    
  5.7754      5.8014      5.8917      6.0806      6.4154      6.9406      7.6709      8.5608      9.6371      11.322    
  13.721      16.467      18.965      20.678      35.819      34.667      31.377      26.486      20.915      15.772    
  11.935      9.6371      8.3528      7.3684      6.6392      6.1677      5.9006      5.7729      5.7362      5.7729    
  5.9006      6.1677      6.6392      7.3684      8.3528      9.6371      11.935      15.772      20.915      26.486    
  31.377      34.667      56.838      54.917      49.431      41.244      31.792      22.810      15.772      11.322    
  9.0536      7.8120      6.8880      6.2760      5.9245      5.7549      5.7058      5.7549      5.9245      6.2760    
  6.8880      7.8120      9.0536      11.322      15.772      22.810      31.792      41.244      49.431      54.917    
  82.719      79.829      71.611      59.406      45.317      31.792      20.915      13.721      9.9242      8.2117    
  7.1304      6.3906      5.9565      5.7438      5.6817      5.7438      5.9565      6.3906      7.1304      8.2117    
  9.9242      13.721      20.915      31.792      45.317      59.406      71.611      79.829      110.03      106.06    
  94.852      78.337      59.406      41.244      26.486      16.467      10.966      8.5478      7.3354      6.4940    
  5.9882      5.7360      5.6615      5.7360      5.9882      6.4940      7.3354      8.5478      10.966      16.467    
  26.486      41.244      59.406      78.337      94.852      106.06      134.26      129.29      115.30      94.852    
  71.611      49.431      31.377      18.965      11.970      8.8424      7.4830      6.5730      6.0130      5.7293    
  5.6449      5.7293      6.0130      6.5730      7.4830      8.8424      11.970      18.965      31.377      49.431    
  71.611      94.852      115.30      129.29      150.97      145.27      129.29      106.06      79.829      54.917    
  34.667      20.678      12.687      9.0542      7.5682      6.6209      6.0279      5.7242      5.6333      5.7242    
  6.0279      6.6209      7.5682      9.0542      12.687      20.678      34.667      54.917      79.829      106.06    
  129.29      145.27      127.95      123.26      110.03      90.644      68.545      47.401      30.170      18.337    
  11.695      8.7395      7.4250      6.5352      5.9908      5.7162      5.6346      5.7162      5.9908      6.5352    
  7.4250      8.7395      11.695      18.337      30.170      47.401      68.545      90.644      110.03      123.26    
  123.26      118.76      106.06      87.438      66.169      45.802      29.210      17.845      11.500      8.6886    
  7.4033      6.5251      5.9902      5.7213      5.6416      5.7213      5.9902      6.5251      7.4033      8.6886    
  11.500      17.845      29.210      45.802      66.169      87.438      106.06      118.76      110.03      106.06    
  94.852      78.337      59.406      41.244      26.486      16.467      10.966      8.5478      7.3354      6.4940    
  5.9882      5.7360      5.6615      5.7360      5.9882      6.4940      7.3354      8.5478      10.966      16.467    
  26.486      41.244      59.406      78.337      94.852      106.06      90.644      87.438      78.337      64.863    
  49.353      34.478      22.484      14.494      10.233      8.3404      7.2174      6.4425      5.9848      5.7592    