ITEM: TIMESTEP
0
ITEM: NUMBER OF ATOMS
108
ITEM: BOX BOUNDS pp pp pp
0.0000000000000000e+00 1.2150000000000000e+01
0.0000000000000000e+00 1.2149999999999990e+01
0.0000000000000000e+00 1.2149999999999990e+01
ITEM: ATOMS id type xsu ysu zsu fx fy fz 
1 1                    0                    0                    0 -5.55111512312578e-16 2.32730501537048e-14 2.34534613952064e-14 
2 1                    0    0.166666666666629    0.166666666666629 -1.38777878078145e-16 9.71445146547012e-17 2.63677968348475e-16 
3 1    0.166666666666629                    0    0.166666666666629  1.0547118733939e-15 2.37310171513627e-14  2.4980018054066e-16 
4 1    0.166666666666629    0.166666666666629                    0 1.13797860024079e-15 1.21430643318376e-15 2.44734787990808e-14 
5 1                    0    0.333333333333371                    0 -3.19189119579733e-16 -7.63278329429795e-17 2.19685380997703e-14 
6 1                    0                  0.5    0.166666666666629 -6.38378239159465e-16 3.13192126313172e-16 5.27355936696949e-16 
7 1    0.166666666666629    0.333333333333371    0.166666666666629 1.94289029309402e-16 -9.08995101411847e-16 3.59087759527199e-16 
8 1    0.166666666666629                  0.5                    0 1.49880108324396e-15 1.78781550111071e-15 2.45278481498992e-14 
9 1                    0    0.666666666666629                    0 -5.27355936696949e-16 9.29811783123569e-16 2.32938668354166e-14 
10 1                    0    0.833333333333371    0.166666666666629 -5.96744875736022e-15 -2.47198095326695e-14 1.11022302462516e-15 
11 1    0.166666666666629    0.666666666666629    0.166666666666629 2.05391259555654e-15 1.26634813746307e-16 -4.66640615037761e-16 
12 1    0.166666666666629    0.833333333333371                    0 2.88657986402541e-15 -2.39183672867682e-14 2.31065167000111e-14 
13 1    0.333333333333371                    0                    0 -1.00855196590033e-15 2.29551010903599e-14 2.30938688040427e-14 
14 1    0.333333333333371    0.166666666666629    0.166666666666629 -1.46917525888079e-15 3.33371839248559e-16 2.90003752349138e-16 
15 1                  0.5                    0    0.166666666666629 2.07305554016449e-15 2.38018595989393e-14 1.52655665885959e-16 
16 1                  0.5    0.166666666666629                    0 1.95291916318951e-15 1.02695629777827e-15 2.45512838574838e-14 
17 1    0.333333333333371    0.333333333333371                    0 -3.11816544806831e-16 -5.53901949263899e-16 2.32203071061452e-14 
18 1    0.333333333333371                  0.5    0.166666666666629 -3.60307486971245e-16 1.07339308014863e-15 -4.15988044791954e-16 
19 1                  0.5    0.333333333333371    0.166666666666629 1.41214510655716e-15 -1.12757025938492e-16 3.33348122326035e-16 
20 1                  0.5                  0.5                    0 2.86648146625296e-15 1.02176906800928e-15 2.46263614697966e-14 
21 1    0.333333333333371    0.666666666666629                    0 -2.53922859301536e-15 1.48466579742018e-15 2.38161947845386e-14 
22 1    0.333333333333371    0.833333333333371    0.166666666666629 -2.80542733141487e-15 -2.47379631427951e-14 -4.12911621127526e-17 
23 1                  0.5    0.666666666666629    0.166666666666629 -3.6120664305677e-16 -2.60208521396521e-16 1.97758476261356e-16 
24 1                  0.5    0.833333333333371                    0 -5.8261636617582e-16 -2.42583730880597e-14 2.46768886791662e-14 
25 1    0.666666666666629                    0                    0 1.81799020282369e-15 2.40953090813179e-14 2.42913328341032e-14 
26 1    0.666666666666629    0.166666666666629    0.166666666666629 1.04083408558608e-16 4.04190569902596e-16  4.0766001685455e-16 
27 1    0.833333333333371                    0    0.166666666666629 2.08166817117217e-16 2.24299745443801e-14 2.22044604925031e-16 
28 1    0.833333333333371    0.166666666666629                    0 1.94289029309402e-16 1.23512311489549e-15  2.3189783426858e-14 
29 1    0.666666666666629    0.333333333333371                    0 1.08246744900953e-15 1.22921421305544e-16 2.34395836073986e-14 
30 1    0.666666666666629                  0.5    0.166666666666629 1.66533453693773e-16                    0 9.71445146547012e-17 
31 1    0.833333333333371    0.333333333333371    0.166666666666629 -1.38777878078145e-16 -5.70425867998936e-17 3.88578058618805e-16 
32 1    0.833333333333371                  0.5                    0 2.77555756156289e-16 1.26287869051112e-15 2.33493779866478e-14 
33 1    0.666666666666629    0.666666666666629                    0 1.60982338570648e-15 4.77048955893622e-16 2.45012343746964e-14 
34 1    0.666666666666629    0.833333333333371    0.166666666666629 9.97465998686664e-16 -2.32730501537048e-14 9.71445146547012e-17 
35 1    0.833333333333371    0.666666666666629    0.166666666666629 2.66453525910038e-15 1.38777878078145e-15 1.42941214420489e-15 
36 1    0.833333333333371    0.833333333333371                    0 1.66533453693773e-15 -2.39530617562878e-14 2.40224506953268e-14 
37 1                    0                    0    0.333333333333371 -2.77555756156289e-16 2.30891694652513e-14 -8.88178419700125e-16 
38 1                    0    0.166666666666629                  0.5 -5.68989300120393e-16 1.02695629777827e-15 9.47159017883337e-16 
39 1    0.166666666666629                    0                  0.5 1.41553435639707e-15 2.41959230429245e-14 1.55812049460607e-15 
40 1    0.166666666666629    0.166666666666629    0.333333333333371 8.32667268468867e-17 3.90312782094782e-16 -6.24500451351651e-16 
41 1                    0    0.333333333333371    0.333333333333371 -9.71445146547012e-17 6.93889390390723e-17 1.17961196366423e-16 
42 1                    0                  0.5                  0.5 -4.96824803519758e-15 1.97201467395242e-15 8.92854041568969e-16 
43 1    0.166666666666629    0.333333333333371                  0.5 -1.72084568816899e-15 -2.53269627492614e-16 1.02348685082632e-15 
44 1    0.166666666666629                  0.5    0.333333333333371 -1.84574577843932e-15 7.70252239692037e-16 -2.0122792321331e-16 
45 1                    0    0.666666666666629    0.333333333333371 -5.60662627435704e-15 6.24500451351651e-17 2.63677968348475e-16 
46 1                    0    0.833333333333371                  0.5 -5.32907051820075e-15 -2.64267774330307e-14 1.73472347597681e-15 
47 1    0.166666666666629    0.666666666666629                  0.5 5.55111512312578e-17 5.06539254985228e-16 7.52869988573934e-16 
48 1    0.166666666666629    0.833333333333371    0.333333333333371 -1.20736753927986e-15 -2.4605317783255e-14 -9.35015953551499e-16 
49 1    0.333333333333371                    0    0.333333333333371 -3.76163943743846e-16  2.4120791220503e-14 -1.22018484183771e-15 
50 1    0.333333333333371    0.166666666666629                  0.5 -3.75540527494667e-16 -1.10700429942559e-16 1.48073217641313e-15 
51 1                  0.5                    0                  0.5 2.75899637337818e-15  2.4495620240322e-14   7.950827225333e-16 
52 1                  0.5    0.166666666666629    0.333333333333371 1.43258134858906e-15  2.4980018054066e-16 -3.46944695195361e-16 
53 1    0.333333333333371    0.333333333333371    0.333333333333371 -9.20311461587164e-16 -1.06593336587912e-15 -9.09713385351119e-16 
54 1    0.333333333333371                  0.5                  0.5 7.46581615973518e-16 1.84680401059794e-15 6.91422830448318e-16 
55 1                  0.5    0.333333333333371                  0.5 2.33746534497939e-15 -1.21159592775255e-17 6.28417131699754e-16 
56 1                  0.5                  0.5    0.333333333333371 2.38239874876534e-15 4.31658154316159e-16 1.36907629330607e-16 
57 1    0.333333333333371    0.666666666666629    0.333333333333371 -1.19655262260931e-15  6.7776527120679e-16 -2.93649382154121e-16 
58 1    0.333333333333371    0.833333333333371                  0.5 -1.38821246165044e-15 -2.52308109572209e-14 1.80403448798473e-15 
59 1                  0.5    0.666666666666629                  0.5 4.76981193257842e-16 -1.52655665885959e-16 -6.29955343531968e-17 
60 1                  0.5    0.833333333333371    0.333333333333371 -4.78770126842443e-16 -2.48566629518915e-14 -9.68070567285151e-16 
61 1    0.666666666666629                    0    0.333333333333371 1.00613961606655e-15 2.43693953905222e-14 -5.13478148889135e-16 
62 1    0.666666666666629    0.166666666666629                  0.5 2.91433543964104e-16 4.61436444609831e-16 5.13478148889135e-16 
63 1    0.833333333333371                    0                  0.5 2.42861286636753e-16 2.29399832463173e-14 1.08940634291343e-15 
64 1    0.833333333333371    0.166666666666629    0.333333333333371 -7.63278329429795e-17 2.63677968348475e-16 -7.97972798949331e-17 
65 1    0.666666666666629    0.333333333333371    0.333333333333371 8.35343892582191e-17 5.67579837296162e-17 4.27074012005618e-17 
66 1    0.666666666666629                  0.5                  0.5 6.93889390390723e-16 8.15320033709099e-16 -4.63171168085807e-16 
67 1    0.833333333333371    0.333333333333371                  0.5 1.81799020282369e-15 1.30227588695381e-15 2.24820162486594e-15 
68 1    0.833333333333371                  0.5    0.333333333333371  1.8249290967276e-15 2.11983208764366e-15 1.16573417585641e-15 
69 1    0.666666666666629    0.666666666666629    0.333333333333371 1.52829138233557e-15 -3.05311331771918e-16 4.22893057377971e-16 
70 1    0.666666666666629    0.833333333333371                  0.5 2.24820162486594e-15 -2.46434816997265e-14 7.56339435525888e-16 
71 1    0.833333333333371    0.666666666666629                  0.5  4.3159920082303e-15 2.70616862252382e-16 1.38777878078145e-15 
72 1    0.833333333333371    0.833333333333371    0.333333333333371 3.36932765758816e-15 -2.59568706589483e-14 -8.46030060244751e-16 
73 1                    0                    0    0.666666666666629 -5.96744875736022e-16 2.25514051876985e-14 -1.38777878078145e-17 
74 1                    0    0.166666666666629    0.833333333333371 -6.43929354282591e-15 3.88578058618805e-15 -2.51881848711832e-14 
75 1    0.166666666666629                    0    0.833333333333371 3.40005801291454e-15 1.81504117291453e-14 -2.48481790698918e-14 
76 1    0.166666666666629    0.166666666666629    0.666666666666629 1.80411241501588e-15 1.47278023110431e-15 3.92047505570758e-16 
77 1                    0    0.333333333333371    0.666666666666629 -5.68989300120393e-15 -2.92127433354494e-15 7.49400541621981e-16 
78 1                    0                  0.5    0.833333333333371 -4.77395900588817e-15 -1.29398851659787e-15 -2.62290189567693e-14 
79 1    0.166666666666629    0.333333333333371    0.833333333333371 -1.4432899320127e-15  -2.468511506315e-15 -2.52593085336983e-14 
80 1    0.166666666666629                  0.5    0.666666666666629 -4.16333634234434e-16 -4.45823933326039e-16 5.20417042793042e-18 
81 1                    0    0.666666666666629    0.666666666666629 -5.41233724504764e-15 1.33226762955019e-15 -5.41233724504764e-16 
82 1                    0    0.833333333333371    0.833333333333371 -5.28743715477731e-15 -2.34950947586299e-14 -2.61700383585861e-14 
83 1    0.166666666666629    0.666666666666629    0.833333333333371 9.99200722162641e-16 1.73298875250083e-15 -2.37032615757471e-14 
84 1    0.166666666666629    0.833333333333371    0.666666666666629 1.04083408558608e-15 -2.31203944878189e-14 1.35828848168984e-15 
85 1    0.333333333333371                    0    0.666666666666629 -2.66261080024421e-15 2.30807025239105e-14 5.54826909242301e-16 
86 1    0.333333333333371    0.166666666666629    0.833333333333371 -2.94892148894332e-15 1.55498647270123e-15 -2.5147415481366e-14 
87 1                  0.5                    0    0.833333333333371 -5.4917550541822e-16 2.00413517975184e-14 -2.52436960224145e-14 
88 1                  0.5    0.166666666666629    0.666666666666629 -3.36164961004144e-16 1.85962356624714e-15 -2.20309881449055e-16 
89 1    0.333333333333371    0.333333333333371    0.666666666666629 -1.4528851212392e-15 -2.47701232897364e-15 1.37338260880991e-15 
90 1    0.333333333333371                  0.5    0.833333333333371 -1.37414493846244e-15 -7.06293340870315e-16 -2.46439729788359e-14 
91 1                  0.5    0.333333333333371    0.833333333333371 -6.83467497007706e-16 -2.24486770318555e-15 -2.54184897414099e-14 
92 1                  0.5                  0.5    0.666666666666629 2.06167819361697e-16 -1.31887095645641e-15 -4.64905891561784e-16 
93 1    0.333333333333371    0.666666666666629    0.666666666666629 -3.2172886316878e-15 2.08485979131742e-15 2.96309065608499e-16 
94 1    0.333333333333371    0.833333333333371    0.833333333333371 -4.51972714896748e-15 -2.23702553334669e-14 -2.50847621483235e-14 
95 1                  0.5    0.666666666666629    0.833333333333371 -3.34801630863524e-15 1.26981758441502e-15 -2.38004060904018e-14 
96 1                  0.5    0.833333333333371    0.666666666666629 -2.91433543964104e-15 -2.34048891378791e-14 6.52256026967279e-16 
97 1    0.666666666666629                    0    0.666666666666629 1.85962356624714e-15 2.37518338330744e-14 -3.22658566531686e-16 
98 1    0.666666666666629    0.166666666666629    0.833333333333371 1.63410951437015e-15 2.10595429983584e-15 -2.38212227721135e-14 
99 1    0.833333333333371                    0    0.833333333333371 1.98105420956551e-15  1.9744622603568e-14 -2.51465515077598e-14 
100 1    0.833333333333371    0.166666666666629    0.666666666666629 2.81719092498633e-15 3.80251385934116e-15 1.60982338570648e-15 
101 1    0.666666666666629    0.333333333333371    0.666666666666629 2.00707506170517e-15 -2.26685797965771e-15 6.03683769639929e-16 
102 1    0.666666666666629                  0.5    0.833333333333371 2.50494069931051e-15 -1.88564441838679e-15 -2.41300035508374e-14 
103 1    0.833333333333371    0.333333333333371    0.833333333333371 3.46647217224286e-15 -3.2607854675952e-15 -2.65882557940952e-14 
104 1    0.833333333333371                  0.5    0.666666666666629 3.60822483003176e-15 -3.57353036051222e-16 -1.2490009027033e-16 
105 1    0.666666666666629    0.666666666666629    0.666666666666629 3.06005221162309e-15 4.30211422042248e-16 -8.06646416329215e-16 
106 1    0.666666666666629    0.833333333333371    0.833333333333371  3.6498581934552e-15 -2.2310820725624e-14 -2.43940609899462e-14 
107 1    0.833333333333371    0.666666666666629    0.833333333333371 3.35322047906317e-15 1.87350135405495e-15 -2.52957377266938e-14 
108 1    0.833333333333371    0.833333333333371    0.666666666666629 4.13558076672871e-15 -2.48100151534203e-14 8.60422844084496e-16 
ITEM: TIMESTEP
100
ITEM: NUMBER OF ATOMS
108
ITEM: BOX BOUNDS pp pp pp
2.1499726283288112e-02 1.2128500273716710e+01
2.1499726283288112e-02 1.2128500273716700e+01
2.1499726283288112e-02 1.2128500273716700e+01
ITEM: ATOMS id type xsu ysu zsu fx fy fz 
1 1 -0.00278852112302275  0.00711216208981114  0.00207405817639028  -0.0626527353996063   -0.213509444631673   0.0255984012356851 
2 1 -0.000751696797351542    0.169948400694238    0.174726766125218   -0.170221892886959   -0.345688981247438   -0.119467371101922 
3 1    0.162020278395289   0.0013278355802413    0.163006260153338 -0.00360138601496213 0.000286815855575835  -0.0596388227723176 
4 1    0.161111743653692    0.166219841879524 -0.00437138550341842  -0.0236645377173854  -0.0576349816839178    0.161793637924166 
5 1 -0.00360803568344181    0.329630614458551  0.00622990778924759   -0.106956717352125    0.151939443151845   -0.435749872311288 
6 1  0.00499848908214062    0.498561069608513    0.165801404907143  -0.0668875061650551    0.200122178002665   0.0431005420696816 
7 1    0.160895945712696    0.323667161063213    0.161686093366143    0.239136256211446     0.56637212294871    0.225834989615742 
8 1    0.165558312937605    0.495302453294698 -0.00123497673831707    0.105355604482288    0.021145661918637  -0.0822450098126376 
9 1 -0.00519516453977076    0.663015577330725  -0.0117132219165796    0.262075337957614  0.00155115114595318    0.659156226601406 
10 1  0.00115444072230275    0.833844633487502    0.165608652934452  0.00341322423784343   -0.068352627735426  -0.0373491031336619 
11 1    0.171732702340705    0.663426290670145    0.164192197762304   -0.171820663451865    0.148548929616467  -0.0880399445046133 
12 1    0.165344313842411    0.836205398826223 -0.000414973500483029  -0.0823604717596864   -0.302693641719686   0.0392900385840973 
13 1    0.332863051486356  0.00216754581049372  0.00266193831259898   -0.179019130594072    0.190071540637449  -0.0915643097567507 
14 1     0.32815249424209    0.173880549215482    0.161482535589698    0.191320637787529    -0.53250644900393    0.326646720485758 
15 1    0.496235938096788  0.00612066043299819    0.173252690792424    0.226753827872013 -0.000655374195332114  -0.0500888610529504 
16 1    0.497192507571867    0.167560524397118 -0.000253120517470506     0.16218367000511   -0.135923072514431    0.168405855715656 
17 1    0.337067216053015    0.330458806829711   0.0048070219110059   -0.290373846168912    0.289685868403939   -0.372796358933366 
18 1    0.336829851581797    0.501775716847533    0.162705933785446   -0.192472909496763  -0.0843670422745029    -0.13076388407822 
19 1    0.495057060977615    0.333853183321366     0.17314932828674    0.271591472878229   0.0474839104054657  -0.0384923002491452 
20 1    0.501817346944563    0.494077979741519 -0.00435471699336176   0.0386901975952391    0.141789215069593   -0.111087332050648 
21 1    0.334434653478411    0.667891955570781 -0.00671021487977441   0.0417134688225753   -0.243584102479311  -0.0193111531050909 
22 1    0.331000552634919      0.8301157313972    0.157958383985374   -0.119986847320932   0.0292381989984576    0.192834909024712 
23 1    0.505444753215784    0.665167362039028    0.154228278804908   -0.113031164832886    0.163053988880665   -0.314362415295154 
24 1    0.493735048329086    0.847744715435965   0.0062903092984925    0.495733326927519   -0.461048563739972   -0.317684971588128 
25 1    0.667748286729648  0.00187918670519593  0.00883978324168311    -0.13634714460976      0.1887466560218   0.0385749707183381 
26 1    0.661142814522464    0.182163394961435    0.183301920107965    0.161457158197514   -0.426399186110928   -0.236494700980857 
27 1    0.837281861560086  0.00471589854805643     0.18198851036459   -0.276103960876618   0.0261196052438452   -0.170006201183106 
28 1    0.829493327161572    0.165562384536997   0.0222289863189644  -0.0676708388532555    0.147241229621644   -0.447369652536142 
29 1    0.670480584997676    0.331052282883093  0.00693465051801923   -0.288374628678336  -0.0519577688164357   -0.189953240637123 
30 1    0.669681379239819    0.510583686819359    0.157100204860399 -0.00913061599005248   -0.317094895039545    0.300970486086293 
31 1    0.834323357669746    0.344389478216499    0.172776274904209    -0.21999180053251  -0.0580044225142049   0.0595232706377825 
32 1    0.831913614153677    0.497774015135633 -0.00154682648229709    0.254875564641657   0.0477785275826616  -0.0281094256302863 
33 1    0.674565369865377    0.671556500749944 -0.00740906206658565   -0.293781609653514  -0.0594013141860143    0.165991960838789 
34 1    0.672658562449783    0.831910660093172    0.165102738738256     -0.2136520287538    0.406898369252762  -0.0925392110014518 
35 1    0.840285072269239      0.6676399978262    0.167901538834258    0.108184077766425   0.0726230479477756    -0.19384773972906 
36 1    0.833100997789415     0.83827168408618 -0.00146315564649058    0.157380638782036  -0.0193615989357695    0.107645139065073 
37 1  0.00305567724535649 -0.00248655717632573    0.340052510081932   -0.185804035831238    0.111092812687388   -0.271086236519206 
38 1 -0.000728220688984038    0.168634805488068    0.495254412268196   -0.220005358793458  -0.0568207525401255   0.0362808042853677 
39 1     0.16057390282117 -0.00121045442620016    0.498260452139107    0.204807710086137   -0.158044154246092    0.215146216226898 
40 1    0.166226729351365    0.163358324293199    0.328406569628896  0.00825700812563882    0.092243835150484   0.0820341462600991 
41 1 -0.00529732326015164     0.33236666915468    0.330789766412749    0.431367618322308    0.442771034036742    0.170249216492828 
42 1   0.0169481285328175    0.500412188132827    0.499424563057119   -0.452503138759156    0.281436690862102  -0.0450985005528082 
43 1    0.163349345081201    0.328389792568714    0.495739167933607    0.319297743995787   0.0851635720806242  -0.0947330230594086 
44 1    0.172912434662408    0.499645354977019    0.331510072266383  0.00565210043603877   -0.070551649277079    -0.12165194268651 
45 1   0.0121311212344608    0.667146407903374    0.334480395566061   -0.289553247116863   0.0749504509478806  -0.0718345998169049 
46 1  0.00306109867290161    0.829622341853337    0.504681633001155    0.126933997314055    0.124826170170484   -0.240097943103427 
47 1    0.176651228026685    0.667372859094939     0.49745954267496 -0.00281264853740321  -0.0271920096264985     0.11838852912246 
48 1    0.165741792042468    0.836992738402273    0.334003040331822  -0.0489222139432391   -0.424295653724452   -0.168065075976981 
49 1    0.323747927510794  -0.0104936805478815    0.320586213031675    0.444171131044868    0.460747368422704    0.400139334537294 
50 1    0.321976753467197    0.158729449737621     0.49372223992259    0.343519033830227 -0.00171392236550462    0.142452958225246 
51 1    0.499077366634538 -0.00650882831286026    0.498310362972006   -0.329119933700599    -0.21871664987897   0.0253394263617399 
52 1    0.503633556499608    0.159609465937478    0.347670049970134   -0.772243807560941    0.568507799756435   -0.460759486099582 
53 1    0.330273993163587    0.335620120669091    0.331011227545673    0.150020898091155   -0.191380351313506    0.178624634539039 
54 1    0.333980743883103    0.494562029873919    0.504742260927173    0.278175686928689   0.0151107015634205   -0.396604591444432 
55 1    0.497983812487291    0.325455428997884    0.508522542645437    0.138042357470732    0.399789473618547   -0.442558474485774 
56 1    0.500628171633025    0.508444590582258    0.323348989692136    0.184583275561433   -0.413441951275131    0.341687996112224 
57 1    0.345778813652828    0.667687766691188    0.322609104986327   -0.853978524555787   -0.279875015446121    0.334813794041712 
58 1    0.331486748428233    0.830714218539697    0.495956459655872    0.147518944804624  -0.0171768175464334   0.0055305926822154 
59 1    0.508077842269472    0.665020709403507    0.493358829393401   -0.320786761916419  -0.0413319941493141    0.229131778064071 
60 1    0.494659505825325    0.819483777959363    0.321056522758795    0.393614505767364    0.987515820896285    0.237454791331691 
61 1    0.660856416826277  0.00761419743173519    0.344610202915646    0.592443627140931   -0.584196205753797   -0.454327827935545 
62 1    0.665978469052334    0.168621602751728    0.499617925567691    0.395590003013359    0.253142086076938    0.477846380900413 
63 1     0.84398802538135 -0.00603653093730827    0.505978197979402   -0.537142133098403    0.271023871956711    -0.31408780419803 
64 1    0.833712156274714    0.178052894735629    0.343271998329669    -0.27442357249982   -0.365826695656839   -0.186791064682974 
65 1    0.668107568270443    0.349622863648392    0.340893679868827  -0.0953634941790954   -0.151581288441751   -0.081954089853591 
66 1     0.66915492458611    0.509832383494768    0.499132616163024    0.103193319706138  -0.0806312354737055    0.216546278054024 
67 1    0.841463551113861    0.345084290946943    0.502441745971055   -0.318493170119305   -0.213896620403949   0.0448143470027283 
68 1    0.835770324626651    0.516486032549437    0.338201856756882    0.112734572478561   -0.237923396151853  -0.0314642786148785 
69 1    0.665892413623965    0.674835357778647     0.32198617333529    0.308135479177337   -0.307118288863741    0.400234709404799 
70 1     0.66758297678723    0.828929226013656    0.497088444569727   0.0513128313157753    0.109378141564057  -0.0060207408895814 
71 1    0.845741761089357    0.673428652466441    0.509286264381103   -0.312138190816542   -0.383354744869115   -0.270847687006571 
72 1    0.833508061724615    0.837787163690109     0.33192900392919    0.068346000505851   -0.206224701148077    0.261428907767725 
73 1 -0.00647422064304237 -0.00189198529795931     0.67097753495932    0.256680799859068  -0.0720184571707538     0.24122131771706 
74 1 -0.00864502583965532    0.172016961354188    0.834234650914141    0.219691776628062  -0.0225420554410805   0.0287925335613898 
75 1    0.164673122189697  -0.0054772078709675    0.837639371975001   -0.118175935501271    0.183357810727002   -0.274145309176231 
76 1    0.149106315645781    0.162618649863248     0.65652155726616    0.613904985994096  -0.0107223747173841    0.575809425509417 
77 1  0.00672247563602468    0.340060407825945    0.661731252184609   -0.229391022127827   -0.277452417879615    0.278240744135333 
78 1 -0.00164699385805989    0.498173770452695    0.826685013640258    0.134563776852597   -0.232735960172036    0.293936007204295 
79 1    0.167216334832574    0.329008401559349    0.832332618306964    -0.20565355714855     0.26374573277945  -0.0445314203004632 
80 1    0.175614462265457    0.497644287630351      0.6651242302936   -0.186708857388222   0.0269551759981812    0.122460173843128 
81 1  0.00735190959073861    0.674112458480295    0.673344899374342   -0.240962146538464    -0.53414064328292   -0.275400479097117 
82 1 -0.000815819148556329    0.830352211756917    0.838481726933537   -0.183389780512904    0.387079241090717  -0.0747696562094302 
83 1    0.164685371363134    0.660184155284469    0.832577676003552    0.419860093555353    0.139461219266561   0.0437895960130101 
84 1    0.159150900060126    0.835326131294323    0.670452481779876     0.53145497594986  -0.0281691207442287  -0.0600748555499073 
85 1    0.333159651151391  -0.0113079035995156    0.663883867645154   -0.248987303708601    0.395057478916431   0.0157138605630213 
86 1    0.317123837095664    0.163990722970539    0.834779415236767    0.461568554907118   -0.203926823208427    -0.32362238521376 
87 1     0.49521099224944  0.00357261688134258    0.828582217063399   -0.266486146015339   -0.376664338575316    0.175892209440193 
88 1    0.495779758815615    0.161280062461515    0.660081827265117   -0.166187887958221   -0.152559359017868   0.0654291592517585 
89 1    0.335784269362989     0.32247896482113    0.665277605048914   -0.445181853789864   0.0204532504770543  -0.0191824531445107 
90 1    0.336902211920233    0.492823838499021    0.827975986313845  -0.0420695558690647    0.097815081961017    0.299045807380251 
91 1    0.493433111656032     0.32124257011219    0.830987751601697    0.172984341837818    0.288011830308528    0.106067553819758 
92 1     0.50251176660106    0.495584318647161    0.667468123380445    0.172663474661501   0.0371978958343345   -0.069004860284904 
93 1    0.342416166889961    0.659639665693931    0.666203994602483   -0.257940074248547     0.27061076491209  -0.0211008860690632 
94 1    0.334970488517456    0.831972838456977    0.835621523601617  -0.0764472465834704   -0.081398769183145   -0.203132789566031 
95 1    0.507902805193908    0.668578345755691    0.831851911965828   -0.288576794812019      -0.142031154126    0.283976869219233 
96 1    0.497059821321727    0.827606305659174    0.662242871984859    0.164422727412076    0.112217496860983   0.0848392586619653 
97 1    0.661467829888238 -0.00133937650946336    0.659552282936374    0.238688114530525   -0.142944407289721    0.102762258012224 
98 1    0.651081029317197    0.155649318903443    0.826675991628349    0.631132901914326    0.448822428512376    0.309147049354174 
99 1    0.830315136891272   0.0114075681167378    0.840556497050784  -0.0807067178852128   -0.334373161012049  -0.0774638024985058 
100 1    0.835876683249353    0.162380586747872     0.66549868750667   -0.278686749841777    0.351408299511456  -0.0785596788651967 
101 1    0.669603106675936    0.335598723964154    0.674046190643821   -0.114240521944156   -0.320412720652708   -0.540806351292851 
102 1    0.670635148336942    0.492538707584117    0.832064822681446   -0.297154482532015    0.331456585544956     0.19201663468991 
103 1     0.82563167632054    0.328307715372034    0.833812302915817    0.345132739243158    -0.18124767359547    0.233245975125351 
104 1    0.839087924759497    0.498244843271777    0.668447903801507   -0.140689006067448     0.29592100751625   -0.153720213687235 
105 1    0.667173289407401    0.670538728907445    0.674633716987614    0.168489253610714   -0.215748442720389   -0.401955205648323 
106 1    0.665197747635716    0.840868879383493    0.836275913527174  -0.0237809315414651   0.0894233115343272   -0.114794842588013 
107 1    0.832446938196085     0.66374096178879    0.833816503648677  0.00191119313859129    0.159703799455576   -0.274072091533925 
108 1    0.831623466354358    0.833069758826355    0.667599323075365  -0.0679227788251496    0.121470742065683    0.405384105578368 
ITEM: TIMESTEP
200
ITEM: NUMBER OF ATOMS
108
ITEM: BOX BOUNDS pp pp pp
2.1820843491624053e-02 1.2128179156508367e+01
2.1820843491624053e-02 1.2128179156508356e+01
2.1820843491624053e-02 1.2128179156508356e+01
ITEM: ATOMS id type xsu ysu zsu fx fy fz 
1 1 -0.00856615519580828 -0.00464216383551275 -0.000919748201738457    0.335011061572138 -0.00490782247404366   0.0843348890874944 
2 1 -0.00685790432953581    0.174826463407271    0.165892288107216    0.414561998995111   -0.545818862259412     0.25940096543962 
3 1    0.167314535507217  0.00160543159245208    0.172568357654086   -0.155977235298975   -0.180373226993268   -0.239286222280142 
4 1    0.166595786059588    0.169913261352463   0.0102816848252587   -0.207000135677254   -0.569688487972815   -0.519606923453099 