LAMMPS (17 Nov 2016)
units metal
dimension 3
boundary p p p
atom_style atomic
read_data structure.inp
  orthogonal box = (0 0 0) to (12.15 12.15 12.15)
  1 by 1 by 1 MPI processor grid
  reading atoms ...
  108 atoms
include potential.inp
pair_style eam/alloy
pair_coeff * * Al.lammps.eam Al
fix 1 all npt temp 200 200 1.0 iso 0.0 0.0 1.0
variable  dumptime equal 100
dump 1 all custom ${dumptime} dump.out id type xsu ysu zsu fx fy fz
dump 1 all custom 100 dump.out id type xsu ysu zsu fx fy fz
dump_modify 1 sort id format line "%d %d %20.15g %20.15g %20.15g %20.15g %20.15g %20.15g"
thermo_style custom step temp pe etotal pxx pyy pzz vol
thermo_modify format  float %20.15g
thermo 100
velocity all create 400 33409 dist gaussian
run 10000
Neighbor list info ...
  1 neighbor list requests
  update every 1 steps, delay 10 steps, check yes
  max neighbors/atom: 2000, page size: 100000
  master list distance cutoff = 8.5
  ghost atom cutoff = 8.5
  binsize = 4.25 -> bins = 3 3 3
Memory usage per processor = 3.93753 Mbytes
Step Temp PotEng TotEng Pxx Pyy Pzz Volume 
       0                  400    -362.880858320022    -357.348524114022    -15496.6796420317    -14746.6724745851    -15476.8136089882          1793.613375 
     100      246.45790009733    -360.778136089467    -357.369417411848     734.429930006034    -355.588938215053    -1488.05654343598     1774.63762977048 
     200     206.997670990824    -360.228951049732    -357.366000310269     2447.79373671036     961.542581815611       289.7171051949     1774.35522962504 
     300     209.184001302452    -360.265346221268    -357.372156706884    -2540.85175877372    -3373.70832258078    -4568.16296380704     1785.88824292176 
     400     203.845239745658    -360.177540136823    -357.358190155385     6053.04777655087     5186.68760009393     4205.19123228165     1765.95530308236 
     500     199.892211966432    -360.127673318969    -357.362997014531    -4141.69471537256    -5385.08106181102    -5789.91961115032     1789.05850105542 
     600     187.025606677294    -359.963851058828    -357.377130655781     6291.76059473072     5016.24668213931     3969.15507487537     1767.23123862656 
     700     185.219365283517    -359.950741784224    -357.389003208795     594.597592018106     411.074404046149    -301.668704236445     1778.93179446533 
     800     185.075269345957    -359.948593175233    -357.388847567015    -327.297537583875     592.771042304275      155.23842824879     1777.94146743305 
     900     203.914451030364    -360.219029277916    -357.398722046584     2848.24043487476     2828.48435345843     1060.52711757069     1772.12016273634 
    1000     212.990332211436    -360.352794847607    -357.406960596506    -2628.89143959361    -3338.48583771535    -4179.20205940285     1783.23160894594 
    1100     200.742960459851    -360.201307800089    -357.424864933175     1960.44280259332     2107.44365344462     1778.38032811025     1772.88025648902 
    1200     200.707215665926    -360.219714973352    -357.443766486803     388.393692183676    -156.966310924059     154.056099515781     1776.23294677423 
    1300     213.986854861353    -360.424454180496    -357.464837188537    -861.287702724359    -2744.75342590287    -2745.23765880343     1780.45862618573 
    1400     222.130536534698    -360.555878593717    -357.483627680047     2692.35084868868     2226.13963129542     2857.49918122243     1768.41709603831 
    1500     203.382614115258    -360.320188183858    -357.507236701419    -5593.03928973745    -5223.32752860077    -4573.36428411747     1787.55835219663 
    1600     194.671995222627    -360.234484226576    -357.542007881275     4902.44834866111     4250.14282530314     5682.79978211262     1765.48810885119 
    1700      184.96371863148     -360.14608262389    -357.587879855255    -2159.64413698183    -1954.41918503388    -1938.76411910561     1781.70592595496 
    1800     198.976430808425    -360.377718802551    -357.625708516678    -888.064344340155    -208.378549656635     868.011237089114     1775.42060190081 
    1900     182.487137211513    -360.189767951221    -357.665818372845     2911.27979745031     2172.19723740928       3405.210380202     1770.49107769906 
    2000     192.607064952863    -360.370111843953    -357.706195209563    -3543.40732318789    -4482.67248656275    -3296.89064932161     1783.56769854341 
    2100     197.674456873858    -360.491256644061    -357.757253745522     3260.40612696469     2867.88013764688     2712.89679777011     1767.90569071504 
    2200     214.331712621497    -360.779751180999    -357.815364518083    -3945.78924477882    -4185.31658037089    -3050.61482019835     1780.78505715404 
    2300     198.601170077612    -360.619748086346    -357.872927969916    -1766.68627759375    -1413.34307643656    -504.648971411951      1776.0223575314 
    2400     188.598926741627    -360.512524793185    -357.904044059117      4472.0150970469     3139.55284608185     3319.46270092683     1766.04337424844 
    2500     164.841404312804    -360.217304255469    -357.937409906357    -5437.74517441879    -5772.29100413042    -4907.81682679799     1787.89831872593 
    2600     176.758165188023    -360.413810271294    -357.969097162646     8581.68660436576     7096.64939628859     7694.40452734758     1756.99886703302 
    2700     155.958225210709    -360.173697408177    -358.016664848076    -4646.17000033075    -5249.70272489688     -4531.6076366074     1787.42184632024 
    2800     170.444907057402    -360.415635614985    -358.058240141105     3011.42062233424     1998.70184521844     2818.25182140739     1768.89024559894 
    2900     179.405622530733    -360.566166754555    -358.084837098866     2041.34300930254     2891.83219696267     2942.04454274058     1767.72086512508 
    3000     174.174563873563     -360.47215458195    -358.063174838118    -7320.23747208321    -6779.48277856331    -7054.86712533868     1789.76286003763 
    3100     185.391364707297    -360.615191463781    -358.051073992613     8026.33044597228      9760.3048966431     9089.43391662928     1753.47217943976 
    3200     187.831236940655     -360.67101987301    -358.073156930304    -8905.75836068781    -9281.44299197286    -8346.23951567935     1792.26208603819 
    3300     185.859305330006    -360.675804660014    -358.105215179063     1809.89508927118     3140.92270036995     3773.72299322185     1766.36303533509 
    3400     186.363512314247    -360.689414911064    -358.111851826248     2501.54024755293     2055.48804853104     1442.07231870679     1768.17909485597 
    3500     179.401615210816    -360.550195515544    -358.068921284438    -7165.46663967134    -7007.12184393636    -7965.97103433621     1790.60184237667 
    3600     193.844413521192    -360.707452684511    -358.026422485598     8516.51720958508     9742.65642935554     9565.46398764642     1752.52674563856 
    3700     167.410161861517    -360.336256380647    -358.020833968401    -7893.78278664381      -7213.046416416    -7716.81409052193     1791.99453130535 
    3800     179.524662856504    -360.505554570801    -358.022578487947     4296.16011117568     4137.02994819154     3273.60915069564     1765.26537823773 
    3900     173.421093566865    -360.384222517645     -357.98566389769     1128.01431211533     1543.45013817405     1126.66896155191     1772.28570681359 
    4000     170.704705143427    -360.281933397093    -357.920944698617    -3591.38700413618    -3368.57329115986    -2615.06486802512     1782.64680357331 
    4100     188.420658657533    -360.466886787247    -357.860871649726     5579.79215456945     5161.73243344871     5353.24366196958      1762.7028368224 
    4200     184.948121979029    -360.362872999311    -357.804885945411    -4811.70698011861    -5022.54082328517    -5384.53949961682     1787.07982008087 
    4300     201.920981986237    -360.546079821484    -357.753343932606     3390.56773861437     3515.48184655123     2800.99252838584     1766.98336143212 
    4400     196.225056877984    -360.414626969806    -357.700670484205    -2352.90502821998    -680.279705812446    -817.089704602526     1777.78639956613 
    4500     192.643520194364    -360.303411191361    -357.638990350522    -1732.00916754755    -1031.57768808322    -3521.66945511832     1780.77293469548 
    4600     208.561836652419    -360.464033569986     -357.57944911254     2992.64540067754     2671.50303351348     3890.60803794489     1767.88075083991 
    4700     186.852795041351    -360.112565849111    -357.528235575376    -4824.26703139767    -3714.62518464981    -3323.28802576631     1786.40447214272 
    4800     194.339132832524    -360.181037290316    -357.493164709982     4418.46160115148     4504.18649066704     3833.97635711958     1767.81604770575 
    4900     175.863110313358    -359.901015097325    -357.468681345425     355.152189318782    -922.537410155123     74.8078172199664     1779.10341763204 
    5000      185.11868542486    -360.002029338238    -357.441683249374    -221.185256155902     404.806883315817     364.710605108516     1777.10459271816 
    5100     192.018877524764    -360.077202567906    -357.421421057086      3239.3388766231     2166.26203858389     2880.05364542956     1771.22158377158 
    5200     217.969424101466    -360.416792357151    -357.402093105104    -3023.80592875093    -4707.00502942002    -4001.74773510387      1783.8751661759 
    5300     193.371058467146    -360.065141771317    -357.390658468296      2427.4954650968      1012.8196526233     1531.42848472639     1774.49853710578 
    5400     204.472902833764    -360.211444210719    -357.383413124351     377.187054512893    -1573.46172278472    -635.331235497354     1777.86550721034 
    5500     211.356529805239     -360.29686846604    -357.373631067282    -756.079188086811    -2625.06848601385    -1769.50609973798     1780.43888268191 
    5600     235.174691766803    -360.617304748289    -357.364642269171     778.929921064748    -307.417333993242     691.445011353732     1773.52498123815 
    5700     222.469033957962    -360.435307312024     -357.35837469617    -3716.29555270377    -4580.34514716466    -4491.10958575848      1784.5586354481 
    5800      209.99201564815    -360.261181076689    -357.356816048796     1685.94124078843     1941.51115303377     2665.23385606523     1772.06244009703 
    5900     190.389196472584    -359.984393618651    -357.351151958406    -592.288785795578    -1624.32803957479    -715.900852177605     1781.20968710959 
    6000     185.672949392025    -359.921696283696     -357.35368426107     1944.13006031328     1337.95680287294     1696.71443239472     1774.66228039197 
    6100     193.463756922735     -360.02556753671    -357.349802136598     865.078057650842     1318.25993645694     1642.08704435381     1775.55729427208 
    6200     189.356483230001    -359.965847380565    -357.346889007312    -1156.15113815097    -942.153005404574    -595.800987301508     1780.73906870593 
    6300     210.398791933944    -360.257641964439    -357.347650880646     1728.88097063508     2437.72682636912     3032.05184461492     1771.80502037838 
    6400     202.812368661864    -360.157291129493    -357.352226618123    -1668.81420525919    -1497.23057263447     -1711.2713218475     1781.35013726765 
    6500     196.068150714777    -360.069578830293    -357.357792488026     224.855922282722     1456.25711169452       673.0239149042     1776.22976923785 
    6600     221.052412612798    -360.419027239863    -357.361687680821     539.402433880476     1605.37067568243      625.00513663325     1774.14322718103 
    6700     206.386128571526    -360.217770004871    -357.363277408021    -2290.59681831672    -3567.00543266269    -3776.54298540944     1783.90505412054 
    6800     190.666328036787    -360.005697641043    -357.368623019718     3450.91156323684     3921.42154520598      4368.5339385951     1769.44608821761 
    6900     183.279187678528    -359.915618258323    -357.380713960219    -1714.50464081684    -93.9064287745083    -1479.03474504644     1781.71590903876 
    7000     184.582185714133    -359.943506553381     -357.39058070377     1009.98326682799     1323.09498952977      2340.3876913469     1775.26052827519 
    7100      204.47612874089    -360.229187735027    -357.401112031668     1231.32976337806     105.497547922642     1295.31911929365     1775.14734144204 
    7200     208.400235324488    -360.291529562956    -357.409180186896    -2835.47169468768     -2588.6733810562    -1236.52451798012     1781.45579707491 
    7300     215.951818899788     -360.41091645202    -357.424122365652     51.5292890933787     240.077164790656     1928.31277346032     1774.39705256697 
    7400     188.743300714899     -360.04904365685    -357.438566110104    -1998.35930528734    -1721.19854071368    -837.096512369954     1781.98296138922 
    7500     215.904847900528    -360.442315489735    -357.456171051532     1929.63305223216     1443.73769549899     1455.67541242817     1772.05581036633 
    7600     200.407326820282    -360.249098291334    -357.477297518082    -2531.24432568665    -1867.52205874143    -2568.26970304704     1782.38268004254 
    7700     212.550835859389    -360.440907056495    -357.501151407148     250.159242299226    -280.010510575865     755.833925209604     1775.03861784335 
    7800     196.470331445821    -360.239099850977    -357.521751013172   0.0809615524628678    -747.465556721547    -1960.61632605359     1778.61718346559 
    7900     194.892164945607    -360.246263407461    -357.550741930936    -462.618431294735    -598.019362625808     160.809462496544     1776.92079568465 
    8000      193.58929527717    -360.252892441139    -357.575390740696     2547.91462492773     705.630558873171     2573.61049399677     1772.03767483242 
    8100     196.219984949885     -360.31336038435    -357.599474047752    -3986.94910924565     -5009.7840223357    -4228.92792223233     1785.49903098362 
    8200     181.550686997243    -360.141075854825    -357.630078165331      6980.4813345622     5338.53460476828     4850.29437019744     1764.58378696936 
    8300     191.427039149254    -360.325977438525    -357.678381546929     -3337.7997709621    -2176.68267891067     -3481.9470498277     1782.99241879106 
    8400     189.675075066287     -360.34593093557    -357.722566171033      -639.4287323112    -1217.56809808472    -897.046663020557     1778.48536797487 
    8500     198.283342668415    -360.479300773369    -357.736876475558     5133.54974949572     5008.38992985246     5186.14288864345     1763.63773919746 
    8600     177.685037439824    -360.216177253574    -357.758644727267    -6379.17674232077    -6558.29282590953    -7898.57907300297     1792.22931945077 
    8700     215.637703761885    -360.779446361048    -357.796996749485     5735.47683989606     4909.91239085883     6271.66387659401     1760.39588718961 
    8800     202.974840052242    -360.651173850412    -357.843862223966    -5386.05117854178    -7097.90346016439     -5548.1930934972     1787.12805914092 
    8900     183.067374935007    -360.437829196398    -357.905854445509     1792.57248520606     464.473443988332    -610.077805125974     1772.95369125609 
    9000     174.330358691354    -360.333345191463    -357.922210675132     6134.35323373241     4233.32688190388     4795.63799803831     1764.39254914917 
    9100     171.449876181311    -360.298136896334    -357.926841859803    -5632.69823895321    -7724.89145952764    -5454.45770551189     1790.47132498365 
    9200     179.364850062783    -360.428966682342    -357.948200943951     8857.35961129582     7178.89829943269      9165.5047267016     1756.14843149537 
    9300      173.31181190897    -360.393153736565    -357.996106573245    -4029.05774778141     -6948.0059688305    -4545.41964387137       1786.219339163 
    9400     184.202076870683    -360.572122512525    -358.024453885805     1762.20945279669     624.947080465719     1751.35045019838     1770.66936305653 
    9500     182.101866849073    -360.559815653311    -358.041194685947     1819.71507963325      723.68408428858     3048.53850451759     1768.85590111843 
    9600     176.691453161972    -360.485343990978    -358.041553565388    -4499.67792965039    -4725.84694304535     -4656.7708105772     1784.80776828751 
    9700     190.769649562209     -360.67750343019    -358.038999785841     6309.20342910589     6176.07545745948     5705.24310719027     1759.64861360298 
    9800     186.235445807089    -360.623719995934    -358.047928177914    -5316.00344930573    -6241.38065675506    -6189.63603703067     1786.40117111526 
    9900      187.60531888523    -360.658699488069    -358.063961180829     3198.64350854095     1195.91275550788      3051.9435599074     1767.75462397382 
   10000     174.707566250011    -360.469503195969    -358.053151583939     1728.97725299147    -1081.05353162505     1673.10259833946     1772.49628532326 
Loop time of 2.81643 on 1 procs for 10000 steps with 108 atoms

Performance: 306.771 ns/day, 0.078 hours/ns, 3550.596 timesteps/s
100.0% CPU use with 1 MPI tasks x no OpenMP threads

MPI task timing breakdown:
Section |  min time  |  avg time  |  max time  |%varavg| %total
---------------------------------------------------------------
Pair    | 2.6295     | 2.6295     | 2.6295     |   0.0 | 93.36
Neigh   | 0          | 0          | 0          |   0.0 |  0.00
Comm    | 0.071121   | 0.071121   | 0.071121   |   0.0 |  2.53
Output  | 0.034517   | 0.034517   | 0.034517   |   0.0 |  1.23
Modify  | 0.062909   | 0.062909   | 0.062909   |   0.0 |  2.23
Other   |            | 0.01838    |            |       |  0.65

Nlocal:    108 ave 108 max 108 min
Histogram: 1 0 0 0 0 0 0 0 0 0
Nghost:    1580 ave 1580 max 1580 min
Histogram: 1 0 0 0 0 0 0 0 0 0
Neighs:    7560 ave 7560 max 7560 min
Histogram: 1 0 0 0 0 0 0 0 0 0

Total # of neighbors = 7560
Ave neighs/atom = 70
Neighbor list builds = 0
Dangerous builds = 0
Total wall time: 0:00:02
