no title                                                                
FOpt      RB3LYP                                                      6-31+G(d)           
Number of atoms                            I                6
Info1-9                                    I   N=           9
          15          14           0           0           0         110
           2          18        -502
Full Title                                 C   N=           1
no title    
Route                                      C   N=           4
#n B3LYP/6-31+G(d) opt Counterpoise(2)          
Charge                                     I                0
Multiplicity                               I                1
Number of electrons                        I               20
Number of alpha electrons                  I               10
Number of beta electrons                   I               10
Number of basis functions                  I               46
Number of independent functions            I               46
Number of point charges in /Mol/           I                0
Number of translation vectors              I                0
Atomic numbers                             I   N=           6
           1           1           8           1           1           8
Nuclear charges                            R   N=           6
  1.00000000E+00  1.00000000E+00  8.00000000E+00  1.00000000E+00  1.00000000E+00
  8.00000000E+00
Current cartesian coordinates              R   N=          18
 -2.65397021E-01 -1.12461012E+00  0.00000000E+00 -1.58744090E+00 -3.73574322E+00
  0.00000000E+00  5.84298833E-02 -2.93823552E+00  0.00000000E+00  1.82394937E+00
  3.11896197E+00  0.00000000E+00 -9.05989582E-01  4.18762295E+00  0.00000000E+00
  5.84298833E-02  2.63245657E+00  0.00000000E+00
Number of symbols in /Mol/                 I                0
Force Field                                I                0
Atom Types                                 C   N=           6
                                                            
            
Int Atom Types                             I   N=           6
           0           0           0           0           0           0
MM charges                                 R   N=           6
  0.00000000E+00  0.00000000E+00  0.00000000E+00  0.00000000E+00  0.00000000E+00
  0.00000000E+00
Integer atomic weights                     I   N=           6
           1           1          16           1           1          16
Real atomic weights                        R   N=           6
  1.00782504E+00  1.00782504E+00  1.59949146E+01  1.00782504E+00  1.00782504E+00
  1.59949146E+01
Atom fragment info                         I   N=           6
           1           1           1           2           2           2
Atom residue num                           I   N=           6
           0           0           0           0           0           0
Nuclear spins                              I   N=           6
           1           1           0           1           1           0
Nuclear ZEff                               R   N=           6
 -1.00000000E+00 -1.00000000E+00 -5.60000000E+00 -1.00000000E+00 -1.00000000E+00
 -5.60000000E+00
Nuclear ZNuc                               R   N=           6
  1.00000000E+00  1.00000000E+00  8.00000000E+00  1.00000000E+00  1.00000000E+00
  8.00000000E+00
Nuclear QMom                               R   N=           6
  0.00000000E+00  0.00000000E+00  0.00000000E+00  0.00000000E+00  0.00000000E+00
  0.00000000E+00
Nuclear GFac                               R   N=           6
  2.79284600E+00  2.79284600E+00  0.00000000E+00  2.79284600E+00  2.79284600E+00
  0.00000000E+00
MicOpt                                     I   N=           6
          -1          -1          -1          -1          -1          -1
Number of residues                         I                0
Number of secondary structures             I                0
Redundant internal dimensions              I   N=           4
          14           5           7           2
Redundant internal coordinate indices      I   N=          56
           1           3           0           0           1           6
           0           0           2           3           0           0
           4           6           0           0           5           6
           0           0           1           3           2           0
           1           6           5           0           4           6
           5           0           3           1           6         -21
           1           6           4         -51           3           1
           6         -22           1           6           4         -52
           6           1           5           4           2           3
           6           5
Redundant internal coordinates             R   N=          14
  1.84230859E+00  3.77099642E+00  1.82890929E+00  1.83132372E+00  1.82993097E+00
  1.84531794E+00  2.50051753E+00  1.85700636E+00  3.40426186E+00  4.35752390E+00
  3.14159265E+00  3.14159265E+00  0.00000000E+00  0.00000000E+00
ZRed-IntVec                                I   N=          14
           0           0           0           0           0           0
           0           0           0           0           0           0
           0           0
ZRed-FPVec                                 R   N=          14
  0.00000000E+00  0.00000000E+00  0.00000000E+00  0.00000000E+00  0.00000000E+00
  0.00000000E+00  0.00000000E+00  0.00000000E+00  0.00000000E+00  0.00000000E+00
  0.00000000E+00  0.00000000E+00  0.00000000E+00  0.00000000E+00
ZRed-Constraint1                           R   N=          14
  1.88972612E+00  1.88972612E+00  1.88972612E+00  1.88972612E+00  1.88972612E+00
  1.57079633E+00  1.57079633E+00  1.57079633E+00  3.14159265E+00  3.14159265E+00
  3.14159265E+00  3.14159265E+00  0.00000000E+00  0.00000000E+00
ZRed-Constraint2                           R   N=          14
  0.00000000E+00  0.00000000E+00  0.00000000E+00  0.00000000E+00  0.00000000E+00
  0.00000000E+00  0.00000000E+00  0.00000000E+00  0.00000000E+00  0.00000000E+00
  0.00000000E+00  0.00000000E+00  0.00000000E+00  0.00000000E+00
SymInf integers                            I   N=          26
           1           2           1           1           1           1
           1          -1           0           0           0           0
           0           0           0           0           0           0
           0           0           0           0           0           0
           0           0
RotTr to input orientation                 R   N=          12
  2.01789187E-01 -9.79428979E-01  0.00000000E+00  9.79428979E-01  2.01789187E-01
  0.00000000E+00  0.00000000E+00  0.00000000E+00  1.00000000E+00  2.19774249E+00
  4.24390193E-01  1.22078207E-17
Number of contracted shells                I               18
Number of primitive shells                 I               40
Pure/Cartesian d shells                    I                1
Pure/Cartesian f shells                    I                0
Highest angular momentum                   I                2
Largest degree of contraction              I                6
Shell types                                I   N=          18
           0           0           0           0           0          -1
          -1          -1           2           0           0           0
           0           0          -1          -1          -1           2
Number of primitives per shell             I   N=          18
           3           1           3           1           6           3
           1           1           1           3           1           3
           1           6           3           1           1           1
Shell to atom map                          I   N=          18
           1           1           2           2           3           3
           3           3           3           4           4           5
           5           6           6           6           6           6
Primitive exponents                        R   N=          40
  1.87311370E+01  2.82539436E+00  6.40121692E-01  1.61277759E-01  1.87311370E+01
  2.82539436E+00  6.40121692E-01  1.61277759E-01  5.48467166E+03  8.25234946E+02
  1.88046958E+02  5.29645000E+01  1.68975704E+01  5.79963534E+00  1.55396162E+01
  3.59993359E+00  1.01376175E+00  2.70005823E-01  8.45000000E-02  8.00000000E-01
  1.87311370E+01  2.82539436E+00  6.40121692E-01  1.61277759E-01  1.87311370E+01
  2.82539436E+00  6.40121692E-01  1.61277759E-01  5.48467166E+03  8.25234946E+02
  1.88046958E+02  5.29645000E+01  1.68975704E+01  5.79963534E+00  1.55396162E+01
  3.59993359E+00  1.01376175E+00  2.70005823E-01  8.45000000E-02  8.00000000E-01
Contraction coefficients                   R   N=          40
  3.34946043E-02  2.34726953E-01  8.13757326E-01  1.00000000E+00  3.34946043E-02
  2.34726953E-01  8.13757326E-01  1.00000000E+00  1.83107443E-03  1.39501722E-02
  6.84450781E-02  2.32714336E-01  4.70192898E-01  3.58520853E-01 -1.10777550E-01
 -1.48026263E-01  1.13076702E+00  1.00000000E+00  1.00000000E+00  1.00000000E+00
  3.34946043E-02  2.34726953E-01  8.13757326E-01  1.00000000E+00  3.34946043E-02
  2.34726953E-01  8.13757326E-01  1.00000000E+00  1.83107443E-03  1.39501722E-02
  6.84450781E-02  2.32714336E-01  4.70192898E-01  3.58520853E-01 -1.10777550E-01
 -1.48026263E-01  1.13076702E+00  1.00000000E+00  1.00000000E+00  1.00000000E+00
P(S=P) Contraction coefficients            R   N=          40
  0.00000000E+00  0.00000000E+00  0.00000000E+00  0.00000000E+00  0.00000000E+00
  0.00000000E+00  0.00000000E+00  0.00000000E+00  0.00000000E+00  0.00000000E+00
  0.00000000E+00  0.00000000E+00  0.00000000E+00  0.00000000E+00  7.08742682E-02
  3.39752839E-01  7.27158577E-01  1.00000000E+00  1.00000000E+00  0.00000000E+00
  0.00000000E+00  0.00000000E+00  0.00000000E+00  0.00000000E+00  0.00000000E+00
  0.00000000E+00  0.00000000E+00  0.00000000E+00  0.00000000E+00  0.00000000E+00
  0.00000000E+00  0.00000000E+00  0.00000000E+00  0.00000000E+00  7.08742682E-02
  3.39752839E-01  7.27158577E-01  1.00000000E+00  1.00000000E+00  0.00000000E+00
Coordinates of each shell                  R   N=          54
 -2.65397021E-01 -1.12461012E+00  0.00000000E+00 -2.65397021E-01 -1.12461012E+00
  0.00000000E+00 -1.58744090E+00 -3.73574322E+00  0.00000000E+00 -1.58744090E+00
 -3.73574322E+00  0.00000000E+00  5.84298833E-02 -2.93823552E+00  0.00000000E+00
  5.84298833E-02 -2.93823552E+00  0.00000000E+00  5.84298833E-02 -2.93823552E+00
  0.00000000E+00  5.84298833E-02 -2.93823552E+00  0.00000000E+00  5.84298833E-02
 -2.93823552E+00  0.00000000E+00  1.82394937E+00  3.11896197E+00  0.00000000E+00
  1.82394937E+00  3.11896197E+00  0.00000000E+00 -9.05989582E-01  4.18762295E+00
  0.00000000E+00 -9.05989582E-01  4.18762295E+00  0.00000000E+00  5.84298833E-02
  2.63245657E+00  0.00000000E+00  5.84298833E-02  2.63245657E+00  0.00000000E+00
  5.84298833E-02  2.63245657E+00  0.00000000E+00  5.84298833E-02  2.63245657E+00
  0.00000000E+00  5.84298833E-02  2.63245657E+00  0.00000000E+00
Num ILSW                                   I              100
ILSW                                       I   N=         100
           0           1           0           1           2           0
           0           0           0           0         402          -1
           5           0           0           0           2           0
           0           0           1           0           1           0
           1           0           0           0           0           0
           0           0      100000           0          -1           0
           0           0           0           0           0           0
           0           0           0           1           0           0
           0 -2000000000           1           0           0           0
           0           0           4          52           0           0
           0           0           5           0           0           0
           0           0           0           0           0           1
           0           0           0           0           0           0
           0           0           0           0           0           0
           0           0           0           0           0           0
           0           0           0           0           0           0
           0           0           0           0
Num RLSW                                   I               52
RLSW                                       R   N=          52
  8.00000000E-01  7.20000000E-01  1.00000000E+00  8.10000000E-01  2.00000000E-01
  0.00000000E+00  0.00000000E+00  1.00000000E+00  0.00000000E+00  0.00000000E+00
  0.00000000E+00  0.00000000E+00  1.00000000E+00  0.00000000E+00  0.00000000E+00
  0.00000000E+00  0.00000000E+00  1.00000000E+00  0.00000000E+00  0.00000000E+00
  0.00000000E+00  0.00000000E+00  1.00000000E+00  0.00000000E+00  0.00000000E+00
  0.00000000E+00  0.00000000E+00  1.00000000E+00  0.00000000E+00  0.00000000E+00
  0.00000000E+00  0.00000000E+00  1.00000000E+00  0.00000000E+00  0.00000000E+00
  0.00000000E+00  0.00000000E+00  0.00000000E+00  1.00000000E+00  1.00000000E+00
  0.00000000E+00  1.00000000E+00  0.00000000E+00  0.00000000E+00  0.00000000E+00
  0.00000000E+00  0.00000000E+00  0.00000000E+00  0.00000000E+00  0.00000000E+00
  0.00000000E+00  0.00000000E+00
MxBond                                     I                3
NBond                                      I   N=           6
           2           1           2           1           1           3
IBond                                      I   N=          18
           3           6           0           3           0           0
           1           2           0           6           0           0
           6           0           0           1           4           5
RBond                                      R   N=          18
  1.00000000E+00  1.00000000E+00  0.00000000E+00  1.00000000E+00  0.00000000E+00
  0.00000000E+00  1.00000000E+00  1.00000000E+00  0.00000000E+00  1.00000000E+00
  0.00000000E+00  0.00000000E+00  1.00000000E+00  0.00000000E+00  0.00000000E+00
  1.00000000E+00  1.00000000E+00  1.00000000E+00
Virial Ratio                               R      2.009243273970090E+00
SCF Energy                                 R     -7.642255239395163E+01
Total Energy                               R     -1.528525325425974E+02
RMS Force                                  R      3.120160823327310E-06
RMS Density                                R      6.772747105568879E-09
Job Status                                 I                1
Nuclear derivative order                   I                1
External E-field                           R   N=          35
  0.00000000E+00  0.00000000E+00  0.00000000E+00  0.00000000E+00  0.00000000E+00
  0.00000000E+00  0.00000000E+00  0.00000000E+00  0.00000000E+00  0.00000000E+00
  0.00000000E+00  0.00000000E+00  0.00000000E+00  0.00000000E+00  0.00000000E+00
  0.00000000E+00  0.00000000E+00  0.00000000E+00  0.00000000E+00  0.00000000E+00
  0.00000000E+00  0.00000000E+00  0.00000000E+00  0.00000000E+00  0.00000000E+00
  0.00000000E+00  0.00000000E+00  0.00000000E+00  0.00000000E+00  0.00000000E+00
  0.00000000E+00  0.00000000E+00  0.00000000E+00  0.00000000E+00  0.00000000E+00
IOpCl                                      I                0
IROHF                                      I                0
Alpha Orbital Energies                     R   N=          46
 -1.91932146E+01 -1.91359531E+01 -1.04594141E+00 -9.89483819E-01 -5.68775892E-01
 -5.15419383E-01 -4.24932912E-01 -3.62419922E-01 -3.44205112E-01 -2.89518118E-01
  3.71733158E-03  6.22727590E-02  9.71726117E-02  1.35345084E-01  1.52989538E-01
  1.59568550E-01  1.97159652E-01  2.02705048E-01  2.15629401E-01  2.58477284E-01
  2.86207566E-01  3.06470357E-01  9.43205648E-01  9.98238917E-01  1.02686463E+00
  1.07619897E+00  1.09558221E+00  1.10412299E+00  1.14761479E+00  1.15757931E+00
  1.17001181E+00  1.18228030E+00  1.34112351E+00  1.41305551E+00  1.69492231E+00
  1.73101464E+00  1.75033982E+00  1.75242302E+00  1.78830817E+00  1.85077793E+00
  2.24873583E+00  2.35323962E+00  2.61994878E+00  2.67030763E+00  3.74709673E+00
  3.85388617E+00
Alpha MO coefficients                      R   N=        2116
 -7.73560020E-05 -1.45306246E-03 -4.27260338E-05 -2.94699201E-04 -5.38235564E-05
 -1.31268217E-04  2.70116285E-05 -2.64438418E-05  0.00000000E+00  5.91543784E-04
 -1.82837635E-04  3.92677014E-04  0.00000000E+00  1.43684485E-03 -1.65142692E-04
  6.71748005E-04  0.00000000E+00 -6.66411029E-05  8.07453120E-05 -1.15954661E-04
 -1.33937590E-05  0.00000000E+00  0.00000000E+00  3.73847570E-04 -7.64282765E-04
  4.94168297E-04 -1.22374087E-03  9.92685402E-01  2.57367103E-02  4.22154981E-04
  1.12956009E-03  0.00000000E+00  1.27557017E-02 -2.51501214E-04 -8.97419307E-04
  0.00000000E+00 -1.52788985E-03  1.01740167E-04  1.15058677E-03  0.00000000E+00
 -8.34991930E-03 -8.27790506E-03 -8.27103593E-03  3.61991486E-05  0.00000000E+00
  0.00000000E+00  3.95779682E-04 -1.73319753E-03  3.92803318E-04 -1.06139167E-03
  9.92687741E-01  2.57169210E-02 -1.04205305E-03  4.23075811E-04  0.00000000E+00
  1.29288450E-02  4.92662217E-04  1.08491464E-04  0.00000000E+00 -1.27333136E-03
 -7.83218902E-04  6.39320626E-06  0.00000000E+00 -8.29316598E-03 -8.29022464E-03
 -8.26166721E-03 -3.02358245E-05  0.00000000E+00  0.00000000E+00  8.89645867E-06
 -2.26855368E-04 -6.92018586E-06  2.98665565E-04  4.72405548E-05  2.35152178E-05
 -3.95752280E-06  1.13903065E-05  0.00000000E+00 -2.62246065E-04  4.17371858E-05
 -1.44335865E-04  0.00000000E+00  6.08013553E-04  2.18343907E-04 -5.09126263E-04
  0.00000000E+00  2.23292133E-05  1.02316322E-04  1.13699046E-05  2.04174085E-05
  0.00000000E+00  0.00000000E+00  1.37402521E-02  1.01101075E-02  6.66704038E-03
 -8.08618756E-04 -1.08011070E-02  2.60490697E-02 -5.27770405E-03  5.23495913E-03
  0.00000000E+00  1.33365298E-02 -2.23023759E-03 -5.69610910E-04  0.00000000E+00
  6.19439028E-03  4.28636229E-04  4.09380251E-03  0.00000000E+00  1.38934446E-03
  1.43767905E-03  1.51766830E-04  2.61121581E-04  0.00000000E+00  0.00000000E+00
  1.37927105E-01 -2.93029708E-02  1.39132540E-01 -3.60336121E-02 -2.10863064E-01
  4.74600743E-01  4.32175907E-02  1.10034263E-01  0.00000000E+00  4.49886598E-01
  2.17636362E-02  5.54665551E-02  0.00000000E+00  4.65806203E-02  4.43336371E-03
  2.51081857E-02  0.00000000E+00  1.98928558E-02  1.66335435E-02 -1.09384362E-02
 -2.35671182E-03  0.00000000E+00  0.00000000E+00  1.35148921E-01 -5.76263879E-02
  1.42183938E-01 -3.33528994E-02 -2.11020591E-01  4.70502459E-01 -1.10110016E-01
  5.05504864E-02  0.00000000E+00  4.63977163E-01 -6.01583377E-02  3.72224581E-02
  0.00000000E+00  5.70299216E-02 -1.95620136E-02  3.25680186E-03  0.00000000E+00
  1.49005406E-02  1.77824634E-02 -1.24180327E-02  2.74960142E-03  0.00000000E+00
  0.00000000E+00 -9.31861083E-03 -3.21320264E-03 -9.79032922E-03  1.08344820E-02
  1.22297284E-02 -3.00644963E-02 -3.19607949E-03 -1.15868194E-02  0.00000000E+00
 -2.49185448E-02 -1.65902426E-04 -1.45976992E-02  0.00000000E+00  5.43619628E-03
  4.35357540E-03 -1.26202347E-02  0.00000000E+00 -2.65758271E-03  6.49128629E-04
 -8.47913624E-04  6.83767254E-04  0.00000000E+00  0.00000000E+00  2.35403190E-02
 -3.61476211E-03 -2.09582041E-02 -1.09242342E-02  1.93911305E-03 -7.63705415E-03
  2.04509709E-02  3.87731087E-02  0.00000000E+00  3.98830357E-03  1.10841323E-02
  2.38093414E-02  0.00000000E+00  8.31545741E-06 -2.31367197E-03 -8.31299068E-04
  0.00000000E+00 -3.75947382E-03  1.92741832E-03 -1.12957367E-03 -1.58513727E-03
  0.00000000E+00  0.00000000E+00  2.33037601E-01  9.51440757E-02 -2.39629268E-01
 -9.81119310E-02 -1.15780446E-03  2.04554332E-03  4.83192182E-01 -2.01275600E-01
  0.00000000E+00  3.95856689E-03  2.53732868E-01 -1.08408405E-01  0.00000000E+00
  6.70708680E-03  2.29330572E-02 -1.62106837E-02  0.00000000E+00  2.26803999E-02
 -2.30728714E-02 -3.58147269E-04  2.84715516E-02  0.00000000E+00  0.00000000E+00
  2.30234956E-01  7.71203944E-02 -2.30881783E-01 -1.12259129E-01 -1.54425130E-03
 -2.53926426E-03  2.27511248E-01  4.46614366E-01  0.00000000E+00  2.66718396E-02
  1.14750263E-01  2.41130391E-01  0.00000000E+00  6.57719024E-04  7.83861415E-03
  1.50849437E-02  0.00000000E+00 -2.90623874E-02  2.51721823E-02 -2.40547036E-03
 -2.32464022E-02  0.00000000E+00  0.00000000E+00 -5.89366685E-02 -2.76093886E-02
 -5.32191448E-03  1.06993417E-02 -1.04024558E-02  2.06518860E-02 -9.62092035E-02
 -9.55793393E-02  0.00000000E+00  3.71170652E-02 -5.10491566E-02 -6.77261809E-02
  0.00000000E+00  1.33097142E-02 -4.42967085E-03 -2.34758871E-02  0.00000000E+00
 -4.17681090E-03 -2.68829998E-04  4.82037495E-04 -6.46456852E-03  0.00000000E+00
  0.00000000E+00  1.05727620E-02  8.44111107E-03 -8.77757395E-02 -6.18081866E-02
 -2.64031763E-02  6.60539096E-02  1.52250134E-01  9.28555311E-02  0.00000000E+00
  9.11069143E-02  8.49835886E-02  4.63031604E-02  0.00000000E+00  2.68241332E-02
  1.16494894E-02  8.86769712E-03  0.00000000E+00 -1.01800010E-02  9.94501995E-03
  3.34353468E-03 -2.84306821E-03  0.00000000E+00  0.00000000E+00  1.33122340E-01
  7.39105752E-02  1.33771515E-01  6.73682390E-02  7.32087504E-02 -1.66784970E-01
  1.94276548E-01  4.96451311E-01  0.00000000E+00 -2.78744808E-01  1.19283550E-01
  3.11434044E-01  0.00000000E+00 -4.05232242E-02  2.93841245E-02  8.44996126E-02
  0.00000000E+00 -1.70180938E-03  2.89632661E-02 -7.80264795E-03  1.67912633E-02
  0.00000000E+00  0.00000000E+00 -1.44733441E-01 -7.94110815E-02 -1.28515670E-01
 -8.59763848E-02 -7.50201208E-02  1.67952411E-01  4.77995089E-01 -2.85599281E-01
  0.00000000E+00  2.98730448E-01  2.91945149E-01 -1.74870524E-01  0.00000000E+00
  2.22717521E-02  6.75560773E-02 -5.39344725E-02  0.00000000E+00 -2.90229909E-02
 -3.26572504E-03  8.45528946E-03  2.46482165E-02  0.00000000E+00  0.00000000E+00
 -2.92575097E-02 -4.30196153E-02 -3.30230448E-02 -2.15828227E-03 -2.06601586E-02
  5.09199460E-02 -4.54290750E-02 -1.16411504E-01  0.00000000E+00  7.51715812E-02
 -2.52279702E-02 -7.19173473E-02  0.00000000E+00  2.84446258E-02  1.43314494E-02
 -4.29330458E-02  0.00000000E+00  2.34752560E-03 -8.97135525E-03  3.05087981E-03
 -4.80393861E-03  0.00000000E+00  0.00000000E+00  0.00000000E+00  0.00000000E+00
  0.00000000E+00  0.00000000E+00  0.00000000E+00  0.00000000E+00  0.00000000E+00
  0.00000000E+00  3.96835104E-02  0.00000000E+00  0.00000000E+00  0.00000000E+00
  3.03487083E-02  0.00000000E+00  0.00000000E+00  0.00000000E+00  2.07014247E-03
  0.00000000E+00  0.00000000E+00  0.00000000E+00  0.00000000E+00 -1.94418954E-03
  2.04366399E-03  0.00000000E+00  0.00000000E+00  0.00000000E+00  0.00000000E+00
  0.00000000E+00  0.00000000E+00  0.00000000E+00  0.00000000E+00  6.42982827E-01
  0.00000000E+00  0.00000000E+00  0.00000000E+00  4.35499477E-01  0.00000000E+00
  0.00000000E+00  0.00000000E+00  1.19301564E-01  0.00000000E+00  0.00000000E+00
  0.00000000E+00  0.00000000E+00  1.13643082E-02  2.87007734E-02  0.00000000E+00
  0.00000000E+00  0.00000000E+00  0.00000000E+00  0.00000000E+00  0.00000000E+00
  0.00000000E+00  0.00000000E+00  6.39782982E-01  0.00000000E+00  0.00000000E+00
  0.00000000E+00  4.33421121E-01  0.00000000E+00  0.00000000E+00  0.00000000E+00
  1.28698670E-01  0.00000000E+00  0.00000000E+00  0.00000000E+00  0.00000000E+00
 -2.95560971E-02  1.38547687E-02  0.00000000E+00  0.00000000E+00  0.00000000E+00
  0.00000000E+00  0.00000000E+00  0.00000000E+00  0.00000000E+00  0.00000000E+00
 -5.39719148E-02  0.00000000E+00  0.00000000E+00  0.00000000E+00 -3.82189807E-02
  0.00000000E+00  0.00000000E+00  0.00000000E+00 -2.36843645E-03  0.00000000E+00
  0.00000000E+00  0.00000000E+00  0.00000000E+00 -9.00685572E-04 -3.43771599E-03
  3.13460641E-02 -2.21027960E-02  2.63834397E-02 -2.32600315E-03  3.10042835E-02
 -4.24986293E-02  5.12314617E-02 -7.15677441E-02  0.00000000E+00 -3.21085934E-01
  4.46648168E-02 -5.70226466E-02  0.00000000E+00  5.00019480E-01 -7.98135296E-02
  1.47013204E-01  0.00000000E+00  1.11390265E-02  1.21685766E-02  1.54229646E-02
  3.86488274E-03  0.00000000E+00  0.00000000E+00  8.70431419E-02  1.57951965E-01
  9.84843373E-02  2.68976070E-02  9.02880550E-02 -1.40064794E-01 -5.93080441E-02
 -1.79908982E-01  0.00000000E+00 -9.21675474E-01 -7.60080446E-02 -2.40670516E-01
  0.00000000E+00  1.03123428E+00  4.37123631E-02  5.21441280E-01  0.00000000E+00
  2.92826412E-02  2.63507679E-02  4.09235189E-02 -8.49302263E-04  0.00000000E+00
  0.00000000E+00  5.87491023E-02 -3.54529750E-01  8.90301212E-02  1.75505097E-01
  7.73628362E-02 -1.26459590E-01  2.06707438E-01  1.30829631E-02  0.00000000E+00
 -7.51174825E-01  2.44155005E-01  1.53013283E-01  0.00000000E+00  1.07088558E+00
 -4.16874129E-01 -1.71844099E-01  0.00000000E+00  1.32133702E-02  3.30991424E-02
  3.44154459E-02 -3.92972930E-03  0.00000000E+00  0.00000000E+00 -1.17188300E-02
 -1.60288249E-02 -1.57258372E-02  7.77400637E-02 -1.66346307E-03  3.18541260E-03
  4.14228348E-02  1.59374532E-01  0.00000000E+00  3.60911977E-02  5.92101790E-02
  1.85596741E-01  0.00000000E+00 -1.00322670E-01 -7.16484714E-02 -5.60745395E-01
  0.00000000E+00 -2.53732609E-04  9.60391102E-03 -5.51487229E-03  3.52018769E-03
  0.00000000E+00  0.00000000E+00 -1.92683484E-03 -1.12131853E-01  2.80956533E-02
  1.34714267E-01  1.13574233E-02 -2.91216853E-02 -4.70751810E-02  1.89184828E-02
  0.00000000E+00 -5.29589717E-02 -4.71927477E-02  6.09298216E-02  0.00000000E+00
 -5.76202476E-02  1.57839111E-01 -9.88236997E-02  0.00000000E+00  3.76912159E-03
  2.72358521E-03 -2.04304559E-04  5.23397774E-03  0.00000000E+00  0.00000000E+00
  7.27239262E-02  2.82174485E-01 -5.99850255E-02 -2.69995987E-01  2.26488929E-03
  1.62700376E-03 -3.23336573E-01  8.92785951E-02  0.00000000E+00 -5.76660476E-02
 -5.27283839E-01  1.59724577E-01  0.00000000E+00  1.25615043E-01  8.89439556E-01
 -3.32457722E-01  0.00000000E+00 -1.20324142E-02  1.32078155E-02  3.22362131E-03
 -1.94854231E-02  0.00000000E+00  0.00000000E+00  0.00000000E+00  0.00000000E+00
  0.00000000E+00  0.00000000E+00  0.00000000E+00  0.00000000E+00  0.00000000E+00
  0.00000000E+00 -1.46213751E-01  0.00000000E+00  0.00000000E+00  0.00000000E+00
 -2.03138562E-01  0.00000000E+00  0.00000000E+00  0.00000000E+00  4.11799165E-01
  0.00000000E+00  0.00000000E+00  0.00000000E+00  0.00000000E+00  4.53892326E-03
  4.27388202E-03  0.00000000E+00  0.00000000E+00  0.00000000E+00  0.00000000E+00
  0.00000000E+00  0.00000000E+00  0.00000000E+00  0.00000000E+00 -2.47640768E-01
  0.00000000E+00  0.00000000E+00  0.00000000E+00 -3.97262588E-01  0.00000000E+00
  0.00000000E+00  0.00000000E+00  1.01104798E+00  0.00000000E+00  0.00000000E+00
  0.00000000E+00  0.00000000E+00 -2.59923591E-03 -9.03033232E-03 -1.89623568E-03
 -7.43619841E-01 -7.64094419E-02 -4.46382252E-01 -3.65947153E-02 -4.15871694E-04
 -3.18210074E-02 -1.77489540E-01  0.00000000E+00  5.84020216E-01 -1.15465562E-01
 -1.96242552E-01  0.00000000E+00  1.94393094E-01 -1.81244643E-01  7.51573443E-01
  0.00000000E+00 -2.30875081E-02 -4.30349658E-02 -3.16027993E-02  1.96435297E-03
  0.00000000E+00  0.00000000E+00  1.00823715E-01  1.14203760E+00 -6.01715773E-02
 -5.49060354E-01  3.44261801E-02 -3.78766077E-02 -8.78520407E-02  1.69066571E-01
  0.00000000E+00 -4.20772937E-01 -2.15994304E-01  2.77224047E-01  0.00000000E+00
 -3.20115573E-02 -8.37506000E-01 -5.94287626E-01  0.00000000E+00  2.84771613E-02
  1.57382800E-02  1.75931989E-02  3.08315472E-03  0.00000000E+00  0.00000000E+00
  4.97395883E-02 -6.90893906E-02 -8.62459184E-03  1.86122659E-01  3.23168285E-02
 -7.54755377E-02 -1.82059615E-01 -1.10832263E-01  0.00000000E+00 -2.14508571E-01
 -3.17441791E-01 -7.16779471E-02  0.00000000E+00 -1.93347274E-02  9.42352478E-01
  3.07837227E-02  0.00000000E+00  2.04150881E-02  5.21998892E-03  1.98843073E-03
  8.37291550E-03  0.00000000E+00  0.00000000E+00 -6.50504478E-02 -3.36245887E-01
  1.24285896E-01  1.25980770E+00  2.96874900E-02 -3.04768156E-02  1.58317771E-01
  2.52755551E-02  0.00000000E+00 -3.87286293E-01  3.28904030E-01 -4.17422694E-02
  0.00000000E+00 -3.14677763E-01  9.29256653E-02 -9.15299036E-01  0.00000000E+00
  1.88970976E-02  2.04271330E-02  1.29538271E-02 -1.14403261E-02  0.00000000E+00
  0.00000000E+00  0.00000000E+00  0.00000000E+00  0.00000000E+00  0.00000000E+00
  0.00000000E+00  0.00000000E+00  0.00000000E+00  0.00000000E+00 -2.32130619E-01
  0.00000000E+00  0.00000000E+00  0.00000000E+00 -4.31196008E-01  0.00000000E+00
  0.00000000E+00  0.00000000E+00  1.18941835E+00  0.00000000E+00  0.00000000E+00
  0.00000000E+00  0.00000000E+00  6.15069609E-03 -8.77000445E-03  0.00000000E+00
  0.00000000E+00  0.00000000E+00  0.00000000E+00  0.00000000E+00  0.00000000E+00
  0.00000000E+00  0.00000000E+00  1.21331216E-01  0.00000000E+00  0.00000000E+00
  0.00000000E+00  2.31024726E-01  0.00000000E+00  0.00000000E+00  0.00000000E+00
 -7.40921633E-01  0.00000000E+00  0.00000000E+00  0.00000000E+00  0.00000000E+00
  1.24064441E-03 -5.75518403E-03  4.36893817E-02  8.66584961E-01 -9.70259015E-02
 -8.46477363E-01  4.29475989E-04  9.86763993E-03 -1.41468305E-01  4.01450882E-02
  0.00000000E+00  2.19654835E-02 -2.83176420E-01  3.35014156E-02  0.00000000E+00
 -1.58999708E-01  1.72397178E-01 -1.42365587E+00  0.00000000E+00  1.05222931E-03
  2.20145289E-02  9.95191453E-04 -1.61414385E-02  0.00000000E+00  0.00000000E+00
  1.43986073E-01  1.44241194E+00 -4.74798104E-02 -3.24121985E-01  2.94626776E-02
 -1.42820698E-02 -1.08747569E-01  1.69072607E-03  0.00000000E+00 -4.63783137E-01
 -2.60086588E-01  3.96745543E-02  0.00000000E+00 -1.91246928E-01 -8.87110038E-01
 -3.34216987E-01  0.00000000E+00  3.51625460E-02  1.11827360E-02  1.79006558E-02
  6.81101314E-03  0.00000000E+00  0.00000000E+00  9.99832102E-04 -1.27253894E-01
 -8.00116907E-02 -1.11756171E+00  3.74644306E-03  4.59198645E-03 -1.34416823E-01
 -4.04874706E-02  0.00000000E+00 -7.10960081E-03 -3.18184010E-01 -9.64440034E-02