 Entering Gaussian System, Link 0=g16
 Input=input.com
 Output=input.log
 Initial command:
 /apps/gent/CO7/skylake-ib/software/Gaussian/g16_E.01-intel-2018a/g16/l1.exe "/vscmnt/gent_kyukon_scratch/_kyukon_scratch_gent/vo/000/gvo00003/vsc41947/pyiron/projects/week6/bsse/dimer_bsse_hdf5/dimer_bsse/Gau-138793.inp" -scrdir="/vscmnt/gent_kyukon_scratch/_kyukon_scratch_gent/vo/000/gvo00003/vsc41947/pyiron/projects/week6/bsse/dimer_bsse_hdf5/dimer_bsse/"
 Default is to use a total of   4 processors:
                                4 via shared-memory
                                1 via Linda
 Entering Link 1 = /apps/gent/CO7/skylake-ib/software/Gaussian/g16_E.01-intel-2018a/g16/l1.exe.bin PID=    138794.
  
 Copyright (c) 1988,1990,1992,1993,1995,1998,2003,2009,2016,
            Gaussian, Inc.  All Rights Reserved.
  
 This is part of the Gaussian(R) 16 program.  It is based on
 the Gaussian(R) 09 system (copyright 2009, Gaussian, Inc.),
 the Gaussian(R) 03 system (copyright 2003, Gaussian, Inc.),
 the Gaussian(R) 98 system (copyright 1998, Gaussian, Inc.),
 the Gaussian(R) 94 system (copyright 1995, Gaussian, Inc.),
 the Gaussian 92(TM) system (copyright 1992, Gaussian, Inc.),
 the Gaussian 90(TM) system (copyright 1990, Gaussian, Inc.),
 the Gaussian 88(TM) system (copyright 1988, Gaussian, Inc.),
 the Gaussian 86(TM) system (copyright 1986, Carnegie Mellon
 University), and the Gaussian 82(TM) system (copyright 1983,
 Carnegie Mellon University). Gaussian is a federally registered
 trademark of Gaussian, Inc.
  
 This software contains proprietary and confidential information,
 including trade secrets, belonging to Gaussian, Inc.
  
 This software is provided under written license and may be
 used, copied, transmitted, or stored only in accord with that
 written license.
  
 The following legend is applicable only to US Government
 contracts under FAR:
  
                    RESTRICTED RIGHTS LEGEND
  
 Use, reproduction and disclosure by the US Government is
 subject to restrictions as set forth in subparagraphs (a)
 and (c) of the Commercial Computer Software - Restricted
 Rights clause in FAR 52.227-19.
  
 Gaussian, Inc.
 340 Quinnipiac St., Bldg. 40, Wallingford CT 06492
  
  
 ---------------------------------------------------------------
 Warning -- This program may not be used in any manner that
 competes with the business of Gaussian, Inc. or will provide
 assistance to any competitor of Gaussian, Inc.  The licensee
 of this program is prohibited from giving any competitor of
 Gaussian, Inc. access to this program.  By using this program,
 the user acknowledges that Gaussian, Inc. is engaged in the
 business of creating and licensing software in the field of
 computational chemistry and represents and warrants to the
 licensee that it is not a competitor of Gaussian, Inc. and that
 it will not use this program in any manner prohibited above.
 ---------------------------------------------------------------
  

 Cite this work as:
 Gaussian 16, Revision A.03,
 M. J. Frisch, G. W. Trucks, H. B. Schlegel, G. E. Scuseria, 
 M. A. Robb, J. R. Cheeseman, G. Scalmani, V. Barone, 
 G. A. Petersson, H. Nakatsuji, X. Li, M. Caricato, A. V. Marenich, 
 J. Bloino, B. G. Janesko, R. Gomperts, B. Mennucci, H. P. Hratchian, 
 J. V. Ortiz, A. F. Izmaylov, J. L. Sonnenberg, D. Williams-Young, 
 F. Ding, F. Lipparini, F. Egidi, J. Goings, B. Peng, A. Petrone, 
 T. Henderson, D. Ranasinghe, V. G. Zakrzewski, J. Gao, N. Rega, 
 G. Zheng, W. Liang, M. Hada, M. Ehara, K. Toyota, R. Fukuda, 
 J. Hasegawa, M. Ishida, T. Nakajima, Y. Honda, O. Kitao, H. Nakai, 
 T. Vreven, K. Throssell, J. A. Montgomery, Jr., J. E. Peralta, 
 F. Ogliaro, M. J. Bearpark, J. J. Heyd, E. N. Brothers, K. N. Kudin, 
 V. N. Staroverov, T. A. Keith, R. Kobayashi, J. Normand, 
 K. Raghavachari, A. P. Rendell, J. C. Burant, S. S. Iyengar, 
 J. Tomasi, M. Cossi, J. M. Millam, M. Klene, C. Adamo, R. Cammi, 
 J. W. Ochterski, R. L. Martin, K. Morokuma, O. Farkas, 
 J. B. Foresman, and D. J. Fox, Gaussian, Inc., Wallingford CT, 2016.
 
 ******************************************
 Gaussian 16:  ES64L-G16RevA.03 25-Dec-2016
                21-Nov-2019 
 ******************************************
 %mem=9800MB
 %chk=input.chk
 --------------------------------------
 #n B3LYP/6-31+G(d) opt Counterpoise(2)
 --------------------------------------
 1/18=20,19=15,26=3,38=1,62=2/1,3;
 2/9=110,12=2,17=6,18=5,40=1/2;
 1/18=20,19=15,26=3,38=1,53=2,62=2,63=101/22;
 3/5=1,6=6,7=11,11=2,25=1,30=1,71=1,74=-5/1,2,3;
 4//1;
 5/5=2,38=5/2;
 6/7=2,8=2,9=2,10=2,28=1/1;
 7/7=1,33=-1/1,2,3,16;
 1/18=20,19=15,26=3,53=2,62=2,63=101/22;
 3/5=7,6=11,7=11,11=2,25=1,30=1,71=1,74=-5,82=7/1,2,3;
 4//1;
 5/5=2,38=5/2;
 6/7=2,8=2,9=2,10=2,28=1/1;
 7/7=1,33=-1/1,2,3,16;
 1/18=20,19=15,26=3,53=2,62=2,63=101/22(-5);
 7/9=1,44=-1,126=2/16;
 1/18=20,19=15,26=3,62=2/3(2);
 2/9=110/2;
 99//99;
 2/9=110/2;
 1/18=20,19=15,26=3,53=3,62=2,63=101/22;
 3/5=7,6=11,7=11,11=2,25=1,30=1,71=1,74=-5,82=7/1,2,3;
 4/5=5,16=3,69=1/1;
 5/5=2,38=5/2;
 7/7=1,33=-1/1,2,3,16;
 1/18=20,19=15,26=3,53=3,62=2,63=101/22(-4);
 7/9=1,44=-1,126=2/16;
 1/18=20,19=15,26=3,62=2/3(-8);
 2/9=110/2;
 99/9=1/99;
 --------
 no title
 --------
 Symbolic Z-matrix:
 Charge =  0 Multiplicity = 1 in supermolecule
 Charge =  0 Multiplicity = 1 in fragment      1.
 Charge =  0 Multiplicity = 1 in fragment      2.
 H(Fragment=1)         1.        0.        0. 
 H(Fragment=1)         0.        1.        0. 
 O(Fragment=1)         0.        0.        0. 
 H(Fragment=2)         3.        0.        0. 
 H(Fragment=2)         2.        1.        0. 
 O(Fragment=2)         2.        0.        0. 
 

 GradGradGradGradGradGradGradGradGradGradGradGradGradGradGradGradGradGrad
 Berny optimization.
 Initialization pass.
                           ----------------------------
                           !    Initial Parameters    !
                           ! (Angstroms and Degrees)  !
 --------------------------                            --------------------------
 ! Name  Definition              Value          Derivative Info.                !
 --------------------------------------------------------------------------------
 ! R1    R(1,3)                  1.0            estimate D2E/DX2                !
 ! R2    R(1,6)                  1.0            estimate D2E/DX2                !
 ! R3    R(2,3)                  1.0            estimate D2E/DX2                !
 ! R4    R(4,6)                  1.0            estimate D2E/DX2                !
 ! R5    R(5,6)                  1.0            estimate D2E/DX2                !
 ! A1    A(1,3,2)               90.0            estimate D2E/DX2                !
 ! A2    A(1,6,5)               90.0            estimate D2E/DX2                !
 ! A3    A(4,6,5)               90.0            estimate D2E/DX2                !
 ! A4    L(3,1,6,2,-1)         180.0            estimate D2E/DX2                !
 ! A5    L(1,6,4,5,-1)         180.0            estimate D2E/DX2                !
 ! A6    L(3,1,6,2,-2)         180.0            estimate D2E/DX2                !
 ! A7    L(1,6,4,5,-2)         180.0            estimate D2E/DX2                !
 ! D1    D(6,1,5,4)              0.0            estimate D2E/DX2                !
 ! D2    D(2,3,6,5)              0.0            estimate D2E/DX2                !
 --------------------------------------------------------------------------------
 Trust Radius=3.00D-01 FncErr=1.00D-07 GrdErr=1.00D-06 EigMax=2.50D+02 EigMin=1.00D-04
 Number of steps in this run=     24 maximum allowed number of steps=    100.
 GradGradGradGradGradGradGradGradGradGradGradGradGradGradGradGradGradGrad

                          Input orientation:                          
 ---------------------------------------------------------------------
 Center     Atomic      Atomic             Coordinates (Angstroms)
 Number     Number       Type             X           Y           Z
 ---------------------------------------------------------------------
      1          1           0        1.000000    0.000000    0.000000
      2          1           0        0.000000    1.000000    0.000000
      3          8           0        0.000000    0.000000    0.000000
      4          1           0        3.000000    0.000000    0.000000
      5          1           0        2.000000    1.000000    0.000000
      6          8           0        2.000000    0.000000    0.000000
 ---------------------------------------------------------------------
                    Distance matrix (angstroms):
                    1          2          3          4          5
     1  H    0.000000
     2  H    1.414214   0.000000
     3  O    1.000000   1.000000   0.000000
     4  H    2.000000   3.162278   3.000000   0.000000
     5  H    1.414214   2.000000   2.236068   1.414214   0.000000
     6  O    1.000000   2.236068   2.000000   1.000000   1.000000
                    6
     6  O    0.000000
 Stoichiometry    H4O2
 Framework group  CS[SG(H4O2)]
 Deg. of freedom     9
 Full point group                 CS      NOp   2
 Largest Abelian subgroup         CS      NOp   2
 Largest concise Abelian subgroup C1      NOp   1
                         Standard orientation:                         
 ---------------------------------------------------------------------
 Center     Atomic      Atomic             Coordinates (Angstroms)
 Number     Number       Type             X           Y           Z
 ---------------------------------------------------------------------
      1          1           0        0.100000   -0.100000    0.000000
      2          1           0       -0.900000   -1.100000    0.000000
      3          8           0        0.100000   -1.100000    0.000000
      4          1           0        0.100000    1.900000    0.000000
      5          1           0       -0.900000    0.900000    0.000000
      6          8           0        0.100000    0.900000    0.000000
 ---------------------------------------------------------------------
 Rotational constants (GHZ):         265.6385481          13.3259796          12.6894050
 Counterpoise: doing full-system calculation.
 Standard basis: 6-31+G(d) (6D, 7F)
 There are    36 symmetry adapted cartesian basis functions of A'  symmetry.
 There are    10 symmetry adapted cartesian basis functions of A"  symmetry.
 There are    36 symmetry adapted basis functions of A'  symmetry.
 There are    10 symmetry adapted basis functions of A"  symmetry.
    46 basis functions,    80 primitive gaussians,    46 cartesian basis functions
    10 alpha electrons       10 beta electrons
       nuclear repulsion energy        45.1174544268 Hartrees.
 NAtoms=    6 NActive=    6 NUniq=    6 SFac= 1.00D+00 NAtFMM=   60 NAOKFM=F Big=F
 Integral buffers will be    131072 words long.
 Raffenetti 2 integral format.
 Two-electron integral symmetry is turned on.
 One-electron integrals computed using PRISM.
 NBasis=    46 RedAO= T EigKep=  2.26D-03  NBF=    36    10
 NBsUse=    46 1.00D-06 EigRej= -1.00D+00 NBFU=    36    10
 ExpMin= 8.45D-02 ExpMax= 5.48D+03 ExpMxC= 8.25D+02 IAcc=3 IRadAn=         5 AccDes= 0.00D+00
 Harris functional with IExCor=  402 and IRadAn=       5 diagonalized for initial guess.
 HarFok:  IExCor=  402 AccDes= 0.00D+00 IRadAn=         5 IDoV= 1 UseB2=F ITyADJ=14
 ICtDFT=  3500011 ScaDFX=  1.000000  1.000000  1.000000  1.000000
 FoFCou: FMM=F IPFlag=           0 FMFlag=      100000 FMFlg1=           0
         NFxFlg=           0 DoJE=T BraDBF=F KetDBF=T FulRan=T
         wScrn=  0.000000 ICntrl=       500 IOpCl=  0 I1Cent=   200000004 NGrid=           0
         NMat0=    1 NMatS0=      1 NMatT0=    0 NMatD0=    1 NMtDS0=    0 NMtDT0=    0
 Petite list used in FoFCou.
 Initial guess orbital symmetries:
       Occupied  (A') (A') (A') (A') (A') (A') (A') (A") (A') (A")
       Virtual   (A') (A') (A') (A') (A") (A') (A") (A') (A') (A')
                 (A') (A') (A') (A') (A') (A") (A') (A') (A") (A')
                 (A') (A') (A') (A") (A') (A") (A") (A') (A") (A')
                 (A') (A') (A') (A') (A') (A')
 The electronic state of the initial guess is 1-A'.
 Keep R1 ints in memory in symmetry-blocked form, NReq=4057241.
 Requested convergence on RMS density matrix=1.00D-08 within 128 cycles.
 Requested convergence on MAX density matrix=1.00D-06.
 Requested convergence on             energy=1.00D-06.
 No special actions if energy rises.
 Integral accuracy reduced to 1.0D-05 until final iterations.
 Initial convergence to 1.0D-05 achieved.  Increase integral accuracy.
 SCF Done:  E(RB3LYP) =  -152.714033132     A.U. after   13 cycles
            NFock= 13  Conv=0.21D-08     -V/T= 2.0043

 **********************************************************************

            Population analysis using the SCF density.

 **********************************************************************

 Orbital symmetries:
       Occupied  (A') (A') (A') (A') (A') (A') (A") (A') (A') (A")
       Virtual   (A') (A') (A') (A') (A") (A') (A') (A") (A') (A')
                 (A') (A') (A') (A') (A') (A") (A') (A') (A") (A')
                 (A') (A') (A') (A") (A') (A") (A") (A') (A") (A')
                 (A') (A') (A') (A') (A') (A')
 The electronic state is 1-A'.
 Alpha  occ. eigenvalues --  -19.24468 -19.07798  -1.14907  -0.95192  -0.65524
 Alpha  occ. eigenvalues --   -0.56503  -0.41317  -0.39122  -0.29969  -0.24730
 Alpha virt. eigenvalues --   -0.03404   0.02373   0.10683   0.12992   0.13024
 Alpha virt. eigenvalues --    0.18487   0.19749   0.21407   0.23153   0.26602
 Alpha virt. eigenvalues --    0.34944   0.57607   0.73840   0.95974   0.97667
 Alpha virt. eigenvalues --    1.01833   1.05935   1.12594   1.19485   1.20282
 Alpha virt. eigenvalues --    1.25129   1.36783   1.54378   1.58443   1.60923
 Alpha virt. eigenvalues --    1.65039   1.80668   1.82350   1.89084   1.93455
 Alpha virt. eigenvalues --    2.31404   2.46321   2.53856   3.55483   3.92062
 Alpha virt. eigenvalues --    4.12077
          Condensed to atoms (all electrons):
               1          2          3          4          5          6
     1  H    0.439192  -0.014270   0.237871   0.030918   0.001535  -0.191522
     2  H   -0.014270   0.488471   0.161691  -0.000769   0.004284   0.012435
     3  O    0.237871   0.161691   8.805613   0.021028  -0.002133  -0.280166
     4  H    0.030918  -0.000769   0.021028   0.317652  -0.016244   0.143208
     5  H    0.001535   0.004284  -0.002133  -0.016244   0.351253   0.211205
     6  O   -0.191522   0.012435  -0.280166   0.143208   0.211205   8.959678
 Mulliken charges:
               1
     1  H    0.496276
     2  H    0.348159
     3  O   -0.943904
     4  H    0.504206
     5  H    0.450100
     6  O   -0.854838
 Sum of Mulliken charges =   0.00000
 Mulliken charges with hydrogens summed into heavy atoms:
               1
     3  O   -0.099469
     6  O    0.099469
         Mulliken charges condensed to fragments:
      1     -0.099469
      2      0.099469
 Electronic spatial extent (au):  <R**2>=            113.3453
 Charge=              0.0000 electrons
 Dipole moment (field-independent basis, Debye):
    X=             -3.1012    Y=              5.2764    Z=              0.0000  Tot=              6.1203
 Quadrupole moment (field-independent basis, Debye-Ang):
   XX=            -10.9095   YY=            -12.5445   ZZ=            -15.6437
   XY=              0.7194   XZ=              0.0000   YZ=              0.0000
 Traceless Quadrupole moment (field-independent basis, Debye-Ang):
   XX=              2.1231   YY=              0.4880   ZZ=             -2.6111
   XY=              0.7194   XZ=              0.0000   YZ=              0.0000
 Octapole moment (field-independent basis, Debye-Ang**2):
  XXX=             -3.5338  YYY=             20.7504  ZZZ=              0.0000  XYY=             -3.5047
  XXY=              1.6226  XXZ=              0.0000  XZZ=             -0.5893  YZZ=              1.8876
  YYZ=              0.0000  XYZ=              0.0000
 Hexadecapole moment (field-independent basis, Debye-Ang**3):
 XXXX=            -13.9467 YYYY=            -88.0813 ZZZZ=            -15.3719 XXXY=             -0.0810
 XXXZ=              0.0000 YYYX=              3.0910 YYYZ=              0.0000 ZZZX=              0.0000
 ZZZY=              0.0000 XXYY=            -17.6118 XXZZ=             -5.3573 YYZZ=            -22.2186
 XXYZ=              0.0000 YYXZ=              0.0000 ZZXY=              0.1172
 N-N= 4.511745442682D+01 E-N=-4.508626319980D+02  KE= 1.520557988001D+02
 Symmetry A'   KE= 1.430846741470D+02
 Symmetry A"   KE= 8.971124653153D+00
 Calling FoFJK, ICntrl=      2127 FMM=F ISym2X=1 I1Cent= 0 IOpClX= 0 NMat=1 NMatS=1 NMatT=0.
 ***** Axes restored to original set *****
 Cartesian Forces:  Max     0.274419820 RMS     0.080622261
 CPIOFr:  IOpCl= 0 IRwI=-1 IRwCP=  731 ICalc= -1 LCPTot=        4528 Len1MO=        9888 IndFrg=        4528
 CPIOFr:  IOpCl= 0 IRwI=-1 IRwCP=  731 ICalc=  0 LCPTot=        4528 Len1MO=        9888 IndFrg=       14416
 Counterpoise: doing calculation for fragment   1 using the basis set of the full-system, NewBq=T
 Basis read from rwf:  (6D, 7F)
 There are    36 symmetry adapted cartesian basis functions of A'  symmetry.
 There are    10 symmetry adapted cartesian basis functions of A"  symmetry.
 There are    36 symmetry adapted basis functions of A'  symmetry.
 There are    10 symmetry adapted basis functions of A"  symmetry.
    46 basis functions,    80 primitive gaussians,    46 cartesian basis functions
     5 alpha electrons        5 beta electrons
       nuclear repulsion energy         8.8410201690 Hartrees.
 NAtoms=    6 NActive=    6 NUniq=    6 SFac= 1.00D+00 NAtFMM=   60 NAOKFM=F Big=F
 Integral buffers will be    131072 words long.
 Raffenetti 2 integral format.
 Two-electron integral symmetry is turned on.
 One-electron integrals computed using PRISM.
 NBasis=    46 RedAO= T EigKep=  2.26D-03  NBF=    36    10
 NBsUse=    46 1.00D-06 EigRej= -1.00D+00 NBFU=    36    10
 ExpMin= 8.45D-02 ExpMax= 5.48D+03 ExpMxC= 8.25D+02 IAcc=3 IRadAn=         5 AccDes= 0.00D+00
 Harris functional with IExCor=  402 and IRadAn=       5 diagonalized for initial guess.
 HarFok:  IExCor=  402 AccDes= 0.00D+00 IRadAn=         5 IDoV= 1 UseB2=F ITyADJ=14
 ICtDFT=  3500011 ScaDFX=  1.000000  1.000000  1.000000  1.000000
 FoFCou: FMM=F IPFlag=           0 FMFlag=      100000 FMFlg1=           0
         NFxFlg=           0 DoJE=T BraDBF=F KetDBF=T FulRan=T
         wScrn=  0.000000 ICntrl=       500 IOpCl=  0 I1Cent=   200000004 NGrid=           0
         NMat0=    1 NMatS0=      1 NMatT0=    0 NMatD0=    1 NMtDS0=    0 NMtDT0=    0
 Petite list used in FoFCou.
 Initial guess orbital symmetries:
       Occupied  (A') (A') (A') (A') (A")
       Virtual   (A') (A') (A') (A") (A') (A') (A') (A") (A') (A')
                 (A') (A') (A") (A') (A') (A') (A') (A") (A') (A')
                 (A') (A') (A') (A") (A") (A') (A') (A') (A') (A")
                 (A") (A') (A') (A') (A') (A') (A') (A") (A') (A')
                 (A')
 The electronic state of the initial guess is 1-A'.
 Keep R1 ints in memory in symmetry-blocked form, NReq=4057241.
 Requested convergence on RMS density matrix=1.00D-08 within 128 cycles.
 Requested convergence on MAX density matrix=1.00D-06.
 Requested convergence on             energy=1.00D-06.
 No special actions if energy rises.
 Integral accuracy reduced to 1.0D-05 until final iterations.
 Initial convergence to 1.0D-05 achieved.  Increase integral accuracy.
 SCF Done:  E(RB3LYP) =  -76.4178674459     A.U. after   10 cycles
            NFock= 10  Conv=0.20D-08     -V/T= 2.0100

 **********************************************************************

            Population analysis using the SCF density.

 **********************************************************************

 Orbital symmetries:
       Occupied  (A') (A') (A') (A') (A")
       Virtual   (A') (A') (A') (A") (A') (A') (A') (A") (A') (A')
                 (A') (A') (A") (A') (A') (A') (A') (A") (A') (A')
                 (A') (A') (A') (A") (A") (A') (A') (A') (A") (A")
                 (A') (A') (A') (A') (A') (A') (A') (A") (A') (A')
                 (A')
 The electronic state is 1-A'.
 Alpha  occ. eigenvalues --  -19.17956  -1.02110  -0.50262  -0.42296  -0.32052
 Alpha virt. eigenvalues --   -0.00985   0.07360   0.11553   0.11938   0.16476
 Alpha virt. eigenvalues --    0.18040   0.19962   0.20511   0.23732   0.35745
 Alpha virt. eigenvalues --    0.42014   0.45990   0.70259   0.74017   0.75010
 Alpha virt. eigenvalues --    0.78983   1.02420   1.13312   1.14630   1.20299
 Alpha virt. eigenvalues --    1.36492   1.67837   1.70095   1.74168   1.75015
 Alpha virt. eigenvalues --    2.21965   2.35773   2.37879   2.57782   2.59354
 Alpha virt. eigenvalues --    2.61341   2.64423   3.07654   3.56617   4.00008
 Alpha virt. eigenvalues --    4.26123   4.54672   5.22852   5.29944   5.79542
 Alpha virt. eigenvalues --   38.45392
          Condensed to atoms (all electrons):
               1          2          3          4          5          6
     1  H    0.468598  -0.013004   0.159030  -0.003224   0.002909  -0.008713
     2  H   -0.013004   0.393754   0.195012  -0.000031   0.002104  -0.005235
     3  O    0.159030   0.195012   8.402885  -0.000574   0.002799   0.033388
     4  H   -0.003224  -0.000031  -0.000574   0.000514  -0.000190  -0.000545
     5  H    0.002909   0.002104   0.002799  -0.000190   0.000499   0.000192
     6  O   -0.008713  -0.005235   0.033388  -0.000545   0.000192   0.005913
 Mulliken charges:
               1
     1  H    0.394405
     2  H    0.427400
     3  O   -0.792540
     4  H    0.004050
     5  H   -0.008313
     6  O   -0.025001
 Sum of Mulliken charges =  -0.00000
 Mulliken charges with hydrogens summed into heavy atoms:
               1
     3  O    0.029264
     6  O   -0.029264
         Mulliken charges condensed to fragments:
      1      0.029264
      2     -0.029264
 Electronic spatial extent (au):  <R**2>=             58.8063
 Charge=             -0.0000 electrons
 Dipole moment (field-independent basis, Debye):
    X=             -1.7290    Y=              1.6547    Z=              0.0000  Tot=              2.3932
 Quadrupole moment (field-independent basis, Debye-Ang):
   XX=             -5.5204   YY=             -8.9349   ZZ=             -7.9633
   XY=              2.2403   XZ=              0.0000   YZ=              0.0000
 Traceless Quadrupole moment (field-independent basis, Debye-Ang):
   XX=              1.9525   YY=             -1.4621   ZZ=             -0.4905
   XY=              2.2403   XZ=              0.0000   YZ=              0.0000
 Octapole moment (field-independent basis, Debye-Ang**2):
  XXX=             -2.0733  YYY=             23.5847  ZZZ=              0.0000  XYY=             -2.8569
  XXY=              5.5930  XXZ=              0.0000  XZZ=             -0.3670  YZZ=              8.2171
  YYZ=              0.0000  XYZ=              0.0000
 Hexadecapole moment (field-independent basis, Debye-Ang**3):
 XXXX=             -6.9015 YYYY=            -54.9934 ZZZZ=             -7.8754 XXXY=              2.3707
 XXXZ=              0.0000 YYYX=              3.9570 YYYZ=              0.0000 ZZZX=              0.0000
 ZZZY=              0.0000 XXYY=             -8.5473 XXZZ=             -2.7110 YYZZ=            -11.3265
 XXYZ=              0.0000 YYXZ=              0.0000 ZZXY=              0.4182
 N-N= 8.841020169011D+00 E-N=-1.978950849155D+02  KE= 7.566006283612D+01
 Symmetry A'   KE= 7.117239336210D+01
 Symmetry A"   KE= 4.487669474025D+00
 Calling FoFJK, ICntrl=      2127 FMM=F ISym2X=1 I1Cent= 0 IOpClX= 0 NMat=1 NMatS=1 NMatT=0.
 ***** Axes restored to original set *****
 Cartesian Forces:  Max     0.044666467 RMS     0.017538735
 CPIOFr:  IOpCl= 0 IRwI=-1 IRwCP=  731 ICalc=  1 LCPTot=        4528 Len1MO=        9888 IndFrg=       24304
 Counterpoise: doing calculation for fragment   2 using the basis set of the full-system, NewBq=T
 Basis read from rwf:  (6D, 7F)
 There are    36 symmetry adapted cartesian basis functions of A'  symmetry.
 There are    10 symmetry adapted cartesian basis functions of A"  symmetry.
 There are    36 symmetry adapted basis functions of A'  symmetry.
 There are    10 symmetry adapted basis functions of A"  symmetry.
    46 basis functions,    80 primitive gaussians,    46 cartesian basis functions
     5 alpha electrons        5 beta electrons
       nuclear repulsion energy         8.8410201690 Hartrees.
 NAtoms=    6 NActive=    6 NUniq=    6 SFac= 1.00D+00 NAtFMM=   60 NAOKFM=F Big=F
 Integral buffers will be    131072 words long.
 Raffenetti 2 integral format.
 Two-electron integral symmetry is turned on.
 One-electron integrals computed using PRISM.
 NBasis=    46 RedAO= T EigKep=  2.26D-03  NBF=    36    10
 NBsUse=    46 1.00D-06 EigRej= -1.00D+00 NBFU=    36    10
 ExpMin= 8.45D-02 ExpMax= 5.48D+03 ExpMxC= 8.25D+02 IAcc=3 IRadAn=         5 AccDes= 0.00D+00
 Harris functional with IExCor=  402 and IRadAn=       5 diagonalized for initial guess.
 HarFok:  IExCor=  402 AccDes= 0.00D+00 IRadAn=         5 IDoV= 1 UseB2=F ITyADJ=14
 ICtDFT=  3500011 ScaDFX=  1.000000  1.000000  1.000000  1.000000
 FoFCou: FMM=F IPFlag=           0 FMFlag=      100000 FMFlg1=           0
         NFxFlg=           0 DoJE=T BraDBF=F KetDBF=T FulRan=T
         wScrn=  0.000000 ICntrl=       500 IOpCl=  0 I1Cent=   200000004 NGrid=           0
         NMat0=    1 NMatS0=      1 NMatT0=    0 NMatD0=    1 NMtDS0=    0 NMtDT0=    0
 Petite list used in FoFCou.
 Initial guess orbital symmetries:
       Occupied  (A') (A') (A') (A') (A")
       Virtual   (A') (A') (A') (A") (A') (A') (A") (A') (A') (A')
                 (A') (A') (A') (A") (A') (A') (A') (A") (A') (A')
                 (A') (A') (A") (A") (A') (A') (A') (A') (A') (A")
                 (A") (A') (A') (A') (A') (A') (A') (A") (A') (A')
                 (A')
 The electronic state of the initial guess is 1-A'.
 Keep R1 ints in memory in symmetry-blocked form, NReq=4057241.
 Requested convergence on RMS density matrix=1.00D-08 within 128 cycles.
 Requested convergence on MAX density matrix=1.00D-06.
 Requested convergence on             energy=1.00D-06.
 No special actions if energy rises.
 Integral accuracy reduced to 1.0D-05 until final iterations.
 Initial convergence to 1.0D-05 achieved.  Increase integral accuracy.
 SCF Done:  E(RB3LYP) =  -76.4165350227     A.U. after   10 cycles
            NFock= 10  Conv=0.23D-08     -V/T= 2.0101

 **********************************************************************

            Population analysis using the SCF density.

 **********************************************************************

 Orbital symmetries:
       Occupied  (A') (A') (A') (A') (A")
       Virtual   (A') (A') (A') (A") (A') (A') (A") (A') (A') (A')
                 (A') (A') (A') (A") (A') (A') (A') (A') (A") (A')
                 (A') (A') (A') (A") (A") (A') (A') (A') (A') (A")
                 (A") (A') (A') (A') (A') (A') (A') (A") (A') (A')
                 (A')
 The electronic state is 1-A'.
 Alpha  occ. eigenvalues --  -19.17952  -1.02064  -0.50258  -0.42251  -0.31993
 Alpha virt. eigenvalues --    0.00399   0.08517   0.11595   0.14764   0.16006
 Alpha virt. eigenvalues --    0.19862   0.21323   0.23586   0.24442   0.34121
 Alpha virt. eigenvalues --    0.44745   0.50778   0.76537   0.82404   0.86368
 Alpha virt. eigenvalues --    0.88693   1.06626   1.06977   1.13434   1.19858
 Alpha virt. eigenvalues --    1.38088   1.68088   1.73977   1.74319   1.75174
 Alpha virt. eigenvalues --    2.12143   2.40151   2.44166   2.67179   2.74479
 Alpha virt. eigenvalues --    2.77613   2.80943   3.04701   3.73476   4.02086
 Alpha virt. eigenvalues --    4.51815   4.98246   5.40389   5.47404   5.84164
 Alpha virt. eigenvalues --   38.65744
          Condensed to atoms (all electrons):
               1          2          3          4          5          6
     1  H    0.007906  -0.000796   0.000294   0.009163  -0.000372  -0.084468
     2  H   -0.000796   0.000364  -0.000304  -0.000251   0.001212   0.005107
     3  O    0.000294  -0.000304   0.009789   0.003124  -0.005163   0.007612
     4  H    0.009163  -0.000251   0.003124   0.332397  -0.018357   0.184589
     5  H   -0.000372   0.001212  -0.005163  -0.018357   0.381357   0.209329
     6  O   -0.084468   0.005107   0.007612   0.184589   0.209329   8.646748
 Mulliken charges:
               1
     1  H    0.068273
     2  H   -0.005332
     3  O   -0.015352
     4  H    0.489335
     5  H    0.431994
     6  O   -0.968917
 Sum of Mulliken charges =  -0.00000
 Mulliken charges with hydrogens summed into heavy atoms:
               1
     3  O    0.047588
     6  O   -0.047588
         Mulliken charges condensed to fragments:
      1      0.047588
      2     -0.047588
 Electronic spatial extent (au):  <R**2>=             53.7858
 Charge=             -0.0000 electrons
 Dipole moment (field-independent basis, Debye):
    X=             -1.7499    Y=              1.7055    Z=              0.0000  Tot=              2.4435
 Quadrupole moment (field-independent basis, Debye-Ang):
   XX=             -5.5733   YY=             -2.0762   ZZ=             -8.0164
   XY=             -1.2895   XZ=              0.0000   YZ=              0.0000
 Traceless Quadrupole moment (field-independent basis, Debye-Ang):
   XX=             -0.3513   YY=              3.1458   ZZ=             -2.7944
   XY=             -1.2895   XZ=              0.0000   YZ=              0.0000
 Octapole moment (field-independent basis, Debye-Ang**2):
  XXX=             -2.1051  YYY=             -9.3752  ZZZ=              0.0000  XYY=             -0.9699
  XXY=             -5.4229  XXZ=              0.0000  XZZ=             -0.3719  YZZ=             -7.7040
  YYZ=              0.0000  XYZ=              0.0000
 Hexadecapole moment (field-independent basis, Debye-Ang**3):
 XXXX=             -7.1356 YYYY=            -25.2204 ZZZZ=             -8.1159 XXXY=             -1.8763
 XXXZ=              0.0000 YYYX=             -0.6118 YYYZ=              0.0000 ZZZX=              0.0000
 ZZZY=              0.0000 XXYY=             -8.0870 XXZZ=             -2.7918 YYZZ=            -10.1370
 XXYZ=              0.0000 YYXZ=              0.0000 ZZXY=             -0.3320
 N-N= 8.841020169011D+00 E-N=-1.978892324450D+02  KE= 7.565377247909D+01
 Symmetry A'   KE= 7.116044122277D+01
 Symmetry A"   KE= 4.493331256320D+00
 Calling FoFJK, ICntrl=      2127 FMM=F ISym2X=1 I1Cent= 0 IOpClX= 0 NMat=1 NMatS=1 NMatT=0.
 ***** Axes restored to original set *****
 Cartesian Forces:  Max     0.044103755 RMS     0.017583505
 CPIOFr:  IOpCl= 0 IRwI=-1 IRwCP=  731 ICalc=  2 LCPTot=        4528 Len1MO=        9888 IndFrg=       34192
 Counterpoise: doing calculation for fragment   1 using the basis set of the fragment.
 Basis read from rwf:  (6D, 7F)
 There are    18 symmetry adapted cartesian basis functions of A'  symmetry.
 There are     5 symmetry adapted cartesian basis functions of A"  symmetry.
 There are    18 symmetry adapted basis functions of A'  symmetry.
 There are     5 symmetry adapted basis functions of A"  symmetry.
    23 basis functions,    40 primitive gaussians,    23 cartesian basis functions
     5 alpha electrons        5 beta electrons
       nuclear repulsion energy         8.8410201690 Hartrees.
 NAtoms=    6 NActive=    3 NUniq=    3 SFac= 1.00D+00 NAtFMM=   60 NAOKFM=F Big=F
 Integral buffers will be    131072 words long.
 Raffenetti 2 integral format.
 Two-electron integral symmetry is turned on.
 One-electron integrals computed using PRISM.
 NBasis=    23 RedAO= T EigKep=  1.81D-02  NBF=    18     5
 NBsUse=    23 1.00D-06 EigRej= -1.00D+00 NBFU=    18     5
 ExpMin= 8.45D-02 ExpMax= 5.48D+03 ExpMxC= 8.25D+02 IAcc=3 IRadAn=         5 AccDes= 0.00D+00
 Harris functional with IExCor=  402 and IRadAn=       5 diagonalized for initial guess.
 HarFok:  IExCor=  402 AccDes= 0.00D+00 IRadAn=         5 IDoV= 1 UseB2=F ITyADJ=14
 ICtDFT=  3500011 ScaDFX=  1.000000  1.000000  1.000000  1.000000
 FoFCou: FMM=F IPFlag=           0 FMFlag=      100000 FMFlg1=           0
         NFxFlg=           0 DoJE=T BraDBF=F KetDBF=T FulRan=T
         wScrn=  0.000000 ICntrl=       500 IOpCl=  0 I1Cent=   200000004 NGrid=           0
         NMat0=    1 NMatS0=      1 NMatT0=    0 NMatD0=    1 NMtDS0=    0 NMtDT0=    0
 Petite list used in FoFCou.
 Initial guess orbital symmetries:
       Occupied  (A') (A') (A') (A') (A")
       Virtual   (A') (A') (A') (A") (A') (A') (A') (A') (A") (A')
                 (A') (A') (A') (A") (A") (A') (A') (A')
 The electronic state of the initial guess is 1-A'.
 Keep R1 ints in memory in symmetry-blocked form, NReq=3487218.
 Requested convergence on RMS density matrix=1.00D-08 within 128 cycles.
 Requested convergence on MAX density matrix=1.00D-06.
 Requested convergence on             energy=1.00D-06.
 No special actions if energy rises.
 Integral accuracy reduced to 1.0D-05 until final iterations.
 Initial convergence to 1.0D-05 achieved.  Increase integral accuracy.
 SCF Done:  E(RB3LYP) =  -76.4153262297     A.U. after   10 cycles
            NFock= 10  Conv=0.16D-08     -V/T= 2.0100

 **********************************************************************

            Population analysis using the SCF density.

 **********************************************************************

 Orbital symmetries:
       Occupied  (A') (A') (A') (A') (A")
       Virtual   (A') (A') (A") (A') (A') (A') (A') (A') (A") (A')
                 (A') (A') (A') (A") (A") (A') (A') (A')
 The electronic state is 1-A'.
 Alpha  occ. eigenvalues --  -19.17928  -1.02104  -0.50275  -0.42236  -0.32016
 Alpha virt. eigenvalues --    0.01484   0.11094   0.15525   0.15636   0.18132
 Alpha virt. eigenvalues --    0.24785   0.87972   1.01811   1.11222   1.11650
 Alpha virt. eigenvalues --    1.17679   1.29696   1.68701   1.74087   1.74707
 Alpha virt. eigenvalues --    2.26738   2.50805   3.66543
          Condensed to atoms (all electrons):
               1          2          3
     1  H    0.390318  -0.022792   0.196182
     2  H   -0.022792   0.390318   0.196182
     3  O    0.196182   0.196182   8.480222
 Mulliken charges:
               1
     1  H    0.436293
     2  H    0.436293
     3  O   -0.872585
     4  H    0.000000
     5  H    0.000000
     6  O    0.000000
 Sum of Mulliken charges =   0.00000
 Mulliken charges with hydrogens summed into heavy atoms:
               1
     3  O    0.000000
     6  O    0.000000
         Mulliken charges condensed to fragments:
      1      0.000000
      2      0.000000
 Electronic spatial extent (au):  <R**2>=             58.9343
 Charge=              0.0000 electrons
 Dipole moment (field-independent basis, Debye):
    X=             -1.7673    Y=              1.7673    Z=              0.0000  Tot=              2.4994
 Quadrupole moment (field-independent basis, Debye-Ang):
   XX=             -5.5364   YY=             -9.0711   ZZ=             -7.9833
   XY=              2.2464   XZ=              0.0000   YZ=              0.0000
 Traceless Quadrupole moment (field-independent basis, Debye-Ang):
   XX=              1.9938   YY=             -1.5408   ZZ=             -0.4530
   XY=              2.2464   XZ=              0.0000   YZ=              0.0000
 Octapole moment (field-independent basis, Debye-Ang**2):
  XXX=             -2.1243  YYY=             24.0356  ZZZ=              0.0000  XYY=             -2.9233
  XXY=              5.7343  XXZ=              0.0000  XZZ=             -0.3796  YZZ=              8.3629
  YYZ=              0.0000  XYZ=              0.0000
 Hexadecapole moment (field-independent basis, Debye-Ang**3):
 XXXX=             -6.9892 YYYY=            -55.7744 ZZZZ=             -7.9780 XXXY=              2.3869
 XXXZ=              0.0000 YYYX=              4.0606 YYYZ=              0.0000 ZZZX=              0.0000
 ZZZY=              0.0000 XXYY=             -8.7159 XXZZ=             -2.7434 YYZZ=            -11.4858
 XXYZ=              0.0000 YYXZ=              0.0000 ZZXY=              0.4316
 N-N= 8.841020169011D+00 E-N=-1.978893934436D+02  KE= 7.565715418213D+01
 Symmetry A'   KE= 7.116209595438D+01
 Symmetry A"   KE= 4.495058227759D+00
 Calling FoFJK, ICntrl=      2127 FMM=F ISym2X=1 I1Cent= 0 IOpClX= 0 NMat=1 NMatS=1 NMatT=0.
 ***** Axes restored to original set *****
 Cartesian Forces:  Max     0.043060532 RMS     0.017636752
 CPIOFr:  IOpCl= 0 IRwI=-1 IRwCP=  731 ICalc=  3 LCPTot=        4528 Len1MO=        9888 IndFrg=       44080
 Counterpoise: doing calculation for fragment   2 using the basis set of the fragment.
 Basis read from rwf:  (6D, 7F)
 There are    18 symmetry adapted cartesian basis functions of A'  symmetry.
 There are     5 symmetry adapted cartesian basis functions of A"  symmetry.
 There are    18 symmetry adapted basis functions of A'  symmetry.
 There are     5 symmetry adapted basis functions of A"  symmetry.
    23 basis functions,    40 primitive gaussians,    23 cartesian basis functions
     5 alpha electrons        5 beta electrons
       nuclear repulsion energy         8.8410201690 Hartrees.
 NAtoms=    6 NActive=    3 NUniq=    3 SFac= 1.00D+00 NAtFMM=   60 NAOKFM=F Big=F
 Integral buffers will be    131072 words long.
 Raffenetti 2 integral format.
 Two-electron integral symmetry is turned on.
 One-electron integrals computed using PRISM.
 NBasis=    23 RedAO= T EigKep=  1.81D-02  NBF=    18     5
 NBsUse=    23 1.00D-06 EigRej= -1.00D+00 NBFU=    18     5
 ExpMin= 8.45D-02 ExpMax= 5.48D+03 ExpMxC= 8.25D+02 IAcc=3 IRadAn=         5 AccDes= 0.00D+00
 Harris functional with IExCor=  402 and IRadAn=       5 diagonalized for initial guess.
 HarFok:  IExCor=  402 AccDes= 0.00D+00 IRadAn=         5 IDoV= 1 UseB2=F ITyADJ=14
 ICtDFT=  3500011 ScaDFX=  1.000000  1.000000  1.000000  1.000000
 FoFCou: FMM=F IPFlag=           0 FMFlag=      100000 FMFlg1=           0
         NFxFlg=           0 DoJE=T BraDBF=F KetDBF=T FulRan=T
         wScrn=  0.000000 ICntrl=       500 IOpCl=  0 I1Cent=   200000004 NGrid=           0
         NMat0=    1 NMatS0=      1 NMatT0=    0 NMatD0=    1 NMtDS0=    0 NMtDT0=    0
 Petite list used in FoFCou.
 Initial guess orbital symmetries:
       Occupied  (A') (A') (A') (A') (A")
       Virtual   (A') (A') (A') (A") (A') (A') (A') (A') (A") (A')
                 (A') (A') (A') (A") (A") (A') (A') (A')
 The electronic state of the initial guess is 1-A'.
 Keep R1 ints in memory in symmetry-blocked form, NReq=3487218.
 Requested convergence on RMS density matrix=1.00D-08 within 128 cycles.
 Requested convergence on MAX density matrix=1.00D-06.
 Requested convergence on             energy=1.00D-06.
 No special actions if energy rises.
 Integral accuracy reduced to 1.0D-05 until final iterations.
 Initial convergence to 1.0D-05 achieved.  Increase integral accuracy.
 SCF Done:  E(RB3LYP) =  -76.4153262297     A.U. after   10 cycles
            NFock= 10  Conv=0.16D-08     -V/T= 2.0100

 **********************************************************************

            Population analysis using the SCF density.

 **********************************************************************

 Orbital symmetries:
       Occupied  (A') (A') (A') (A') (A")
       Virtual   (A') (A') (A") (A') (A') (A') (A') (A') (A") (A')
                 (A') (A') (A') (A") (A") (A') (A') (A')
 The electronic state is 1-A'.
 Alpha  occ. eigenvalues --  -19.17928  -1.02104  -0.50275  -0.42236  -0.32016
 Alpha virt. eigenvalues --    0.01484   0.11094   0.15525   0.15636   0.18132
 Alpha virt. eigenvalues --    0.24785   0.87972   1.01811   1.11222   1.11650
 Alpha virt. eigenvalues --    1.17679   1.29696   1.68701   1.74087   1.74707
 Alpha virt. eigenvalues --    2.26738   2.50805   3.66543
          Condensed to atoms (all electrons):
               4          5          6
     4  H    0.390318  -0.022792   0.196182
     5  H   -0.022792   0.390318   0.196182
     6  O    0.196182   0.196182   8.480222
 Mulliken charges:
               1
     1  H    0.000000
     2  H    0.000000
     3  O    0.000000
     4  H    0.436293
     5  H    0.436293
     6  O   -0.872585
 Sum of Mulliken charges =   0.00000
 Mulliken charges with hydrogens summed into heavy atoms:
               1
     3  O    0.000000
     6  O    0.000000
         Mulliken charges condensed to fragments:
      1      0.000000
      2      0.000000
 Electronic spatial extent (au):  <R**2>=             53.6784
 Charge=              0.0000 electrons
 Dipole moment (field-independent basis, Debye):
    X=             -1.7673    Y=              1.7673    Z=              0.0000  Tot=              2.4994
 Quadrupole moment (field-independent basis, Debye-Ang):
   XX=             -5.5364   YY=             -2.0018   ZZ=             -7.9833
   XY=             -1.2882   XZ=              0.0000   YZ=              0.0000
 Traceless Quadrupole moment (field-independent basis, Debye-Ang):
   XX=             -0.3626   YY=              3.1721   ZZ=             -2.8095
   XY=             -1.2882   XZ=              0.0000   YZ=              0.0000
 Octapole moment (field-independent basis, Debye-Ang**2):
  XXX=             -2.1243  YYY=             -9.1830  ZZZ=              0.0000  XYY=             -1.0070
  XXY=             -5.3386  XXZ=              0.0000  XZZ=             -0.3796  YZZ=             -7.6037
  YYZ=              0.0000  XYZ=              0.0000
 Hexadecapole moment (field-independent basis, Debye-Ang**3):
 XXXX=             -6.9892 YYYY=            -24.6412 ZZZZ=             -7.9780 XXXY=             -1.8618
 XXXZ=              0.0000 YYYX=             -0.6610 YYYZ=              0.0000 ZZZX=              0.0000
 ZZZY=              0.0000 XXYY=             -7.9246 XXZZ=             -2.7434 YYZZ=             -9.9675
 XXYZ=              0.0000 YYXZ=              0.0000 ZZXY=             -0.3276
 N-N= 8.841020169011D+00 E-N=-1.978893934436D+02  KE= 7.565715418213D+01
 Symmetry A'   KE= 7.116209595438D+01
 Symmetry A"   KE= 4.495058227759D+00
 Calling FoFJK, ICntrl=      2127 FMM=F ISym2X=1 I1Cent= 0 IOpClX= 0 NMat=1 NMatS=1 NMatT=0.
 ***** Axes restored to original set *****
 Cartesian Forces:  Max     0.043060532 RMS     0.017636752
 CPIOFr:  IOpCl= 0 IRwI=-1 IRwCP=  731 ICalc=  4 LCPTot=        4528 Len1MO=        9888 IndFrg=       53968
 CPIOFr:  IOpCl= 0 IRwI=-2 IRwCP=  731 ICalc=  0 LCPTot=        4528 Len1MO=        9888 IndFrg=       14416
 Counterpoise corrected energy =    -152.710283123277
                   BSSE energy =       0.003750009134
              sum of fragments =    -152.830652459444
           complexation energy =      73.18 kcal/mole (raw)
           complexation energy =      75.53 kcal/mole (corrected)
 Rotating derivatives to standard orientation.
 ***** Axes restored to original set *****
 -------------------------------------------------------------------
 Center     Atomic             Integrated Forces (Hartrees/Bohr)
 Number     Number              X              Y              Z
 -------------------------------------------------------------------
      1        1          -0.143855267   -0.055322528    0.000000000
      2        1          -0.032898552   -0.019092864    0.000000000
      3        8          -0.093396531    0.050575059    0.000000000
      4        1          -0.002202345   -0.031059554    0.000000000
      5        1          -0.005802720   -0.014000133    0.000000000
      6        8           0.278155415    0.068900019    0.000000000
 -------------------------------------------------------------------
 Integrated Cartesian Forces:  Max     0.278155415 RMS     0.081581381

 GradGradGradGradGradGradGradGradGradGradGradGradGradGradGradGradGradGrad
 Berny optimization.
 FormGI is forming the generalized inverse of G from B-inverse, IUseBI=4.
 Internal  Forces:  Max     0.270150350 RMS     0.082512761
 Search for a local minimum.
 Step number   1 out of a maximum of   24
 All quantities printed in internal units (Hartrees-Bohrs-Radians)
 Mixed Optimization -- RFO/linear search
 Second derivative matrix not updated -- first step.
 The second derivative matrix:
                          R1        R2        R3        R4        R5
           R1           0.47688
           R2           0.00000   0.47688
           R3           0.00000   0.00000   0.47688
           R4           0.00000   0.00000   0.00000   0.47688
           R5           0.00000   0.00000   0.00000   0.00000   0.47688
           A1           0.00000   0.00000   0.00000   0.00000   0.00000
           A2           0.00000   0.00000   0.00000   0.00000   0.00000
           A3           0.00000   0.00000   0.00000   0.00000   0.00000
           A4           0.00000   0.00000   0.00000   0.00000   0.00000
           A5           0.00000   0.00000   0.00000   0.00000   0.00000
           A6           0.00000   0.00000   0.00000   0.00000   0.00000
           A7           0.00000   0.00000   0.00000   0.00000   0.00000
           D1           0.00000   0.00000   0.00000   0.00000   0.00000
           D2           0.00000   0.00000   0.00000   0.00000   0.00000
                          A1        A2        A3        A4        A5
           A1           0.16000
           A2           0.00000   0.16000
           A3           0.00000   0.00000   0.16000
           A4           0.00000   0.00000   0.00000   0.01028
           A5           0.00000   0.00000   0.00000   0.00000   0.01028
           A6           0.00000   0.00000   0.00000   0.00000   0.00000
           A7           0.00000   0.00000   0.00000   0.00000   0.00000
           D1           0.00000   0.00000   0.00000   0.00000   0.00000
           D2           0.00000   0.00000   0.00000   0.00000   0.00000
                          A6        A7        D1        D2
           A6           0.01028
           A7           0.00000   0.01028
           D1           0.00000   0.00000   0.00230
           D2           0.00000   0.00000   0.00000   0.00230
 ITU=  0
     Eigenvalues ---    0.00230   0.00762   0.01028   0.01028   0.06019
     Eigenvalues ---    0.16000   0.16000   0.47688   0.47688   0.47688
     Eigenvalues ---    0.47688   0.47688
 RFO step:  Lambda=-1.61082378D-01 EMin= 2.30000000D-03
 Linear search not attempted -- first point.
 Maximum step size (   0.300) exceeded in Quadratic search.
    -- Step size scaled by   0.551
 Iteration  1 RMS(Cart)=  0.14123160 RMS(Int)=  0.00980082
 Iteration  2 RMS(Cart)=  0.01046899 RMS(Int)=  0.00000805
 Iteration  3 RMS(Cart)=  0.00000867 RMS(Int)=  0.00000000
 Iteration  4 RMS(Cart)=  0.00000000 RMS(Int)=  0.00000000
 ClnCor:  largest displacement from symmetrization is 3.15D-11 for atom     6.
 Variable       Old X    -DE/DX   Delta X   Delta X   Delta X     New X
                                 (Linear)    (Quad)   (Total)
    R1        1.88973   0.12630   0.00000   0.10902   0.10902   1.99875
    R2        1.88973   0.27015   0.00000   0.23320   0.23320   2.12292
    R3        1.88973  -0.01909   0.00000  -0.01648  -0.01648   1.87324
    R4        1.88973  -0.00220   0.00000  -0.00190  -0.00190   1.88783
    R5        1.88973  -0.01400   0.00000  -0.01209  -0.01209   1.87764
    A1        1.57080   0.06217   0.00000   0.10663   0.10663   1.67743
    A2        1.57080   0.01225   0.00000   0.03474   0.03474   1.60554
    A3        1.57080   0.02322   0.00000   0.05355   0.05355   1.62434
    A4        3.14159   0.00268   0.00000   0.00860   0.00860   3.15019
    A5        3.14159   0.03547   0.00000   0.08829   0.08829   3.22988
    A6        3.14159  -0.00000   0.00000  -0.00000   0.00000   3.14159
    A7        3.14159   0.00000   0.00000   0.00000   0.00000   3.14159
    D1        0.00000   0.00000   0.00000   0.00000   0.00000   0.00000
    D2        0.00000  -0.00000   0.00000   0.00000   0.00000   0.00000
         Item               Value     Threshold  Converged?
 Maximum Force            0.270150     0.000450     NO 
 RMS     Force            0.082513     0.000300     NO 
 Maximum Displacement     0.382748     0.001800     NO 
 RMS     Displacement     0.149592     0.001200     NO 
 Predicted change in Energy=-7.153097D-02
 GradGradGradGradGradGradGradGradGradGradGradGradGradGradGradGradGradGrad

                          Input orientation:                          
 ---------------------------------------------------------------------
 Center     Atomic      Atomic             Coordinates (Angstroms)
 Number     Number       Type             X           Y           Z
 ---------------------------------------------------------------------
      1          1           0        0.972755    0.020066    0.000000
      2          1           0       -0.202542    0.991245    0.000000
      3          8           0       -0.084855    0.006978    0.000000
      4          1           0        3.091578   -0.060026    0.000000
      5          1           0        2.126914    1.017433    0.000000
      6          8           0        2.096149    0.024304    0.000000
 ---------------------------------------------------------------------
                    Distance matrix (angstroms):
                    1          2          3          4          5
     1  H    0.000000
     2  H    1.524635   0.000000
     3  O    1.057691   0.991279   0.000000
     4  H    2.120336   3.457802   3.177139   0.000000
     5  H    1.525393   2.329603   2.431654   1.446199   0.000000
     6  O    1.123403   2.493784   2.181073   0.998994   0.993605
                    6
     6  O    0.000000
 Stoichiometry    H4O2
 Framework group  CS[SG(H4O2)]
 Deg. of freedom     9
 Full point group                 CS      NOp   2
 Largest Abelian subgroup         CS      NOp   2
 Largest concise Abelian subgroup C1      NOp   1
                         Standard orientation:                         
 ---------------------------------------------------------------------
 Center     Atomic      Atomic             Coordinates (Angstroms)
 Number     Number       Type             X           Y           Z
 ---------------------------------------------------------------------
      1          1           0        0.089838   -0.131916    0.000000
      2          1           0       -0.890648   -1.299461    0.000000
      3          8           0        0.094524   -1.189596    0.000000
      4          1           0        0.186758    1.986204    0.000000
      5          1           0       -0.898329    1.030130    0.000000
      6          8           0        0.094524    0.991477    0.000000
 ---------------------------------------------------------------------
 Rotational constants (GHZ):         269.3314369          11.2162859          10.7678592
 CPIOFr:  IOpCl= 0 IRwI=-2 IRwCP=20731 ICalc=  0 LCPTot=        4528 Len1MO=        9888 IndFrg=       14416
 CPIOFr:  IOpCl= 0 IRwI= 4 IRwCP=20731 ICalc=  0 LCPTot=        4528 Len1MO=        9888 IndFrg=       14416
 Counterpoise: doing full-system calculation.
 Basis read from rwf:  (6D, 7F)
 There are    36 symmetry adapted cartesian basis functions of A'  symmetry.
 There are    10 symmetry adapted cartesian basis functions of A"  symmetry.
 There are    36 symmetry adapted basis functions of A'  symmetry.
 There are    10 symmetry adapted basis functions of A"  symmetry.
    46 basis functions,    80 primitive gaussians,    46 cartesian basis functions
    10 alpha electrons       10 beta electrons
       nuclear repulsion energy        42.5284277046 Hartrees.
 NAtoms=    6 NActive=    6 NUniq=    6 SFac= 1.00D+00 NAtFMM=   60 NAOKFM=F Big=F
 Integral buffers will be    131072 words long.
 Raffenetti 2 integral format.
 Two-electron integral symmetry is turned on.
 One-electron integrals computed using PRISM.
 NBasis=    46 RedAO= T EigKep=  3.29D-03  NBF=    36    10
 NBsUse=    46 1.00D-06 EigRej= -1.00D+00 NBFU=    36    10
 Initial guess from the checkpoint file:  "input.chk"
 B after Tr=     0.000000   -0.000000    0.000000
         Rot=    0.999998    0.000000    0.000000    0.001889 Ang=   0.22 deg.
 Initial guess orbital symmetries:
       Occupied  (A') (A') (A') (A') (A') (A') (A") (A') (A') (A")
       Virtual   (A') (A') (A') (A') (A") (A') (A') (A") (A') (A')
                 (A') (A') (A') (A') (A') (A") (A') (A') (A") (A')
                 (A') (A') (A') (A") (A') (A") (A") (A') (A") (A')
                 (A') (A') (A') (A') (A') (A')
 ExpMin= 8.45D-02 ExpMax= 5.48D+03 ExpMxC= 8.25D+02 IAcc=2 IRadAn=         4 AccDes= 0.00D+00
 Harris functional with IExCor=  402 and IRadAn=       4 diagonalized for initial guess.
 HarFok:  IExCor=  402 AccDes= 0.00D+00 IRadAn=         4 IDoV= 1 UseB2=F ITyADJ=14
 ICtDFT=  3500011 ScaDFX=  1.000000  1.000000  1.000000  1.000000
 FoFCou: FMM=F IPFlag=           0 FMFlag=      100000 FMFlg1=           0
         NFxFlg=           0 DoJE=T BraDBF=F KetDBF=T FulRan=T
         wScrn=  0.000000 ICntrl=       500 IOpCl=  0 I1Cent=   200000004 NGrid=           0
         NMat0=    1 NMatS0=      1 NMatT0=    0 NMatD0=    1 NMtDS0=    0 NMtDT0=    0
 Petite list used in FoFCou.
 Keep R1 ints in memory in symmetry-blocked form, NReq=4057241.
 Requested convergence on RMS density matrix=1.00D-08 within 128 cycles.
 Requested convergence on MAX density matrix=1.00D-06.
 Requested convergence on             energy=1.00D-06.
 No special actions if energy rises.
 Integral accuracy reduced to 1.0D-05 until final iterations.
 Initial convergence to 1.0D-05 achieved.  Increase integral accuracy.
 SCF Done:  E(RB3LYP) =  -152.776799947     A.U. after   12 cycles
            NFock= 12  Conv=0.21D-08     -V/T= 2.0072
 Calling FoFJK, ICntrl=      2127 FMM=F ISym2X=1 I1Cent= 0 IOpClX= 0 NMat=1 NMatS=1 NMatT=0.
 ***** Axes restored to original set *****
 Cartesian Forces:  Max     0.155565089 RMS     0.049680990
 CPIOFr:  IOpCl= 0 IRwI=-1 IRwCP=  731 ICalc= -1 LCPTot=        4528 Len1MO=        9888 IndFrg=        4528
 CPIOFr:  IOpCl= 0 IRwI=-1 IRwCP=  731 ICalc=  0 LCPTot=        4528 Len1MO=        9888 IndFrg=       14416
 CPIOFr:  IOpCl= 0 IRwI=-2 IRwCP=20731 ICalc=  1 LCPTot=        4528 Len1MO=        9888 IndFrg=       24304
 CPIOFr:  IOpCl= 0 IRwI= 4 IRwCP=20731 ICalc=  1 LCPTot=        4528 Len1MO=        9888 IndFrg=       24304
 Counterpoise: doing calculation for fragment   1 using the basis set of the full-system, NewBq=T
 Basis read from rwf:  (6D, 7F)
 There are    36 symmetry adapted cartesian basis functions of A'  symmetry.
 There are    10 symmetry adapted cartesian basis functions of A"  symmetry.
 There are    36 symmetry adapted basis functions of A'  symmetry.
 There are    10 symmetry adapted basis functions of A"  symmetry.
    46 basis functions,    80 primitive gaussians,    46 cartesian basis functions
     5 alpha electrons        5 beta electrons
       nuclear repulsion energy         8.6202591866 Hartrees.
 NAtoms=    6 NActive=    6 NUniq=    6 SFac= 1.00D+00 NAtFMM=   60 NAOKFM=F Big=F
 Integral buffers will be    131072 words long.
 Raffenetti 2 integral format.
 Two-electron integral symmetry is turned on.
 One-electron integrals computed using PRISM.
 NBasis=    46 RedAO= T EigKep=  3.29D-03  NBF=    36    10
 NBsUse=    46 1.00D-06 EigRej= -1.00D+00 NBFU=    36    10
 Initial guess from the checkpoint file:  "input.chk"
 B after Tr=     0.000000   -0.000000    0.000000
         Rot=    0.999998    0.000000    0.000000    0.001889 Ang=   0.22 deg.
 Initial guess orbital symmetries:
       Occupied  (A') (A') (A') (A') (A")
       Virtual   (A') (A') (A') (A") (A') (A') (A') (A") (A') (A')
                 (A') (A') (A") (A') (A') (A') (A') (A") (A') (A')
                 (A') (A') (A') (A") (A") (A') (A') (A') (A") (A")
                 (A') (A') (A') (A') (A') (A') (A') (A") (A') (A')
                 (A')
 ExpMin= 8.45D-02 ExpMax= 5.48D+03 ExpMxC= 8.25D+02 IAcc=2 IRadAn=         4 AccDes= 0.00D+00
 Harris functional with IExCor=  402 and IRadAn=       4 diagonalized for initial guess.
 HarFok:  IExCor=  402 AccDes= 0.00D+00 IRadAn=         4 IDoV= 1 UseB2=F ITyADJ=14
 ICtDFT=  3500011 ScaDFX=  1.000000  1.000000  1.000000  1.000000
 FoFCou: FMM=F IPFlag=           0 FMFlag=      100000 FMFlg1=           0
         NFxFlg=           0 DoJE=T BraDBF=F KetDBF=T FulRan=T
         wScrn=  0.000000 ICntrl=       500 IOpCl=  0 I1Cent=   200000004 NGrid=           0
         NMat0=    1 NMatS0=      1 NMatT0=    0 NMatD0=    1 NMtDS0=    0 NMtDT0=    0
 Petite list used in FoFCou.
 Keep R1 ints in memory in symmetry-blocked form, NReq=4057241.
 Requested convergence on RMS density matrix=1.00D-08 within 128 cycles.
 Requested convergence on MAX density matrix=1.00D-06.
 Requested convergence on             energy=1.00D-06.
 No special actions if energy rises.
 Integral accuracy reduced to 1.0D-05 until final iterations.
 Initial convergence to 1.0D-05 achieved.  Increase integral accuracy.
 SCF Done:  E(RB3LYP) =  -76.4164723597     A.U. after   10 cycles
            NFock= 10  Conv=0.19D-08     -V/T= 2.0111
 Calling FoFJK, ICntrl=      2127 FMM=F ISym2X=1 I1Cent= 0 IOpClX= 0 NMat=1 NMatS=1 NMatT=0.
 ***** Axes restored to original set *****
 Cartesian Forces:  Max     0.070688868 RMS     0.023209743
 CPIOFr:  IOpCl= 0 IRwI=-1 IRwCP=  731 ICalc=  1 LCPTot=        4528 Len1MO=        9888 IndFrg=       24304
 CPIOFr:  IOpCl= 0 IRwI=-2 IRwCP=20731 ICalc=  2 LCPTot=        4528 Len1MO=        9888 IndFrg=       34192
 CPIOFr:  IOpCl= 0 IRwI= 4 IRwCP=20731 ICalc=  2 LCPTot=        4528 Len1MO=        9888 IndFrg=       34192
 Counterpoise: doing calculation for fragment   2 using the basis set of the full-system, NewBq=T
 Basis read from rwf:  (6D, 7F)
 There are    36 symmetry adapted cartesian basis functions of A'  symmetry.
 There are    10 symmetry adapted cartesian basis functions of A"  symmetry.
 There are    36 symmetry adapted basis functions of A'  symmetry.
 There are    10 symmetry adapted basis functions of A"  symmetry.
    46 basis functions,    80 primitive gaussians,    46 cartesian basis functions
     5 alpha electrons        5 beta electrons
       nuclear repulsion energy         8.8642550303 Hartrees.
 NAtoms=    6 NActive=    6 NUniq=    6 SFac= 1.00D+00 NAtFMM=   60 NAOKFM=F Big=F
 Integral buffers will be    131072 words long.
 Raffenetti 2 integral format.
 Two-electron integral symmetry is turned on.
 One-electron integrals computed using PRISM.
 NBasis=    46 RedAO= T EigKep=  3.29D-03  NBF=    36    10
 NBsUse=    46 1.00D-06 EigRej= -1.00D+00 NBFU=    36    10
 Initial guess from the checkpoint file:  "input.chk"
 B after Tr=     0.000000   -0.000000    0.000000
         Rot=    0.999998    0.000000    0.000000    0.001889 Ang=   0.22 deg.
 Initial guess orbital symmetries:
       Occupied  (A') (A') (A') (A') (A")
       Virtual   (A') (A') (A') (A") (A') (A') (A") (A') (A') (A')
                 (A') (A') (A') (A") (A') (A') (A') (A') (A") (A')
                 (A') (A') (A') (A") (A") (A') (A') (A') (A') (A")
                 (A") (A') (A') (A') (A') (A') (A') (A") (A') (A')
                 (A')
 ExpMin= 8.45D-02 ExpMax= 5.48D+03 ExpMxC= 8.25D+02 IAcc=2 IRadAn=         4 AccDes= 0.00D+00
 Harris functional with IExCor=  402 and IRadAn=       4 diagonalized for initial guess.
 HarFok:  IExCor=  402 AccDes= 0.00D+00 IRadAn=         4 IDoV= 1 UseB2=F ITyADJ=14
 ICtDFT=  3500011 ScaDFX=  1.000000  1.000000  1.000000  1.000000
 FoFCou: FMM=F IPFlag=           0 FMFlag=      100000 FMFlg1=           0
         NFxFlg=           0 DoJE=T BraDBF=F KetDBF=T FulRan=T
         wScrn=  0.000000 ICntrl=       500 IOpCl=  0 I1Cent=   200000004 NGrid=           0
         NMat0=    1 NMatS0=      1 NMatT0=    0 NMatD0=    1 NMtDS0=    0 NMtDT0=    0
 Petite list used in FoFCou.
 Keep R1 ints in memory in symmetry-blocked form, NReq=4057241.
 Requested convergence on RMS density matrix=1.00D-08 within 128 cycles.
 Requested convergence on MAX density matrix=1.00D-06.
 Requested convergence on             energy=1.00D-06.
 No special actions if energy rises.
 Integral accuracy reduced to 1.0D-05 until final iterations.
 Initial convergence to 1.0D-05 achieved.  Increase integral accuracy.
 SCF Done:  E(RB3LYP) =  -76.4188369888     A.U. after   10 cycles
            NFock= 10  Conv=0.20D-08     -V/T= 2.0101
 Calling FoFJK, ICntrl=      2127 FMM=F ISym2X=1 I1Cent= 0 IOpClX= 0 NMat=1 NMatS=1 NMatT=0.
 ***** Axes restored to original set *****
 Cartesian Forces:  Max     0.039277723 RMS     0.014952470
 CPIOFr:  IOpCl= 0 IRwI=-1 IRwCP=  731 ICalc=  2 LCPTot=        4528 Len1MO=        9888 IndFrg=       34192
 CPIOFr:  IOpCl= 0 IRwI=-2 IRwCP=20731 ICalc=  3 LCPTot=        4528 Len1MO=        9888 IndFrg=       44080
 CPIOFr:  IOpCl= 0 IRwI= 4 IRwCP=20731 ICalc=  3 LCPTot=        4528 Len1MO=        9888 IndFrg=       44080
 Counterpoise: doing calculation for fragment   1 using the basis set of the fragment.
 Basis read from rwf:  (6D, 7F)
 There are    18 symmetry adapted cartesian basis functions of A'  symmetry.
 There are     5 symmetry adapted cartesian basis functions of A"  symmetry.
 There are    18 symmetry adapted basis functions of A'  symmetry.
 There are     5 symmetry adapted basis functions of A"  symmetry.
    23 basis functions,    40 primitive gaussians,    23 cartesian basis functions
     5 alpha electrons        5 beta electrons
       nuclear repulsion energy         8.6202591866 Hartrees.
 NAtoms=    6 NActive=    3 NUniq=    3 SFac= 1.00D+00 NAtFMM=   60 NAOKFM=F Big=F
 Integral buffers will be    131072 words long.
 Raffenetti 2 integral format.
 Two-electron integral symmetry is turned on.
 One-electron integrals computed using PRISM.
 NBasis=    23 RedAO= T EigKep=  1.95D-02  NBF=    18     5
 NBsUse=    23 1.00D-06 EigRej= -1.00D+00 NBFU=    18     5
 Initial guess from the checkpoint file:  "input.chk"
 B after Tr=    -0.121003   -0.182530    0.000000
         Rot=    0.999556    0.000000    0.000000   -0.029798 Ang=  -3.42 deg.
 Initial guess orbital symmetries:
       Occupied  (A') (A') (A') (A') (A")
       Virtual   (A') (A') (A") (A') (A') (A') (A') (A') (A") (A')
                 (A') (A') (A') (A") (A") (A') (A') (A')
 ExpMin= 8.45D-02 ExpMax= 5.48D+03 ExpMxC= 8.25D+02 IAcc=2 IRadAn=         4 AccDes= 0.00D+00
 Harris functional with IExCor=  402 and IRadAn=       4 diagonalized for initial guess.
 HarFok:  IExCor=  402 AccDes= 0.00D+00 IRadAn=         4 IDoV= 1 UseB2=F ITyADJ=14
 ICtDFT=  3500011 ScaDFX=  1.000000  1.000000  1.000000  1.000000
 FoFCou: FMM=F IPFlag=           0 FMFlag=      100000 FMFlg1=           0
         NFxFlg=           0 DoJE=T BraDBF=F KetDBF=T FulRan=T
         wScrn=  0.000000 ICntrl=       500 IOpCl=  0 I1Cent=   200000004 NGrid=           0
         NMat0=    1 NMatS0=      1 NMatT0=    0 NMatD0=    1 NMtDS0=    0 NMtDT0=    0
 Petite list used in FoFCou.
 Keep R1 ints in memory in symmetry-blocked form, NReq=3487218.
 Requested convergence on RMS density matrix=1.00D-08 within 128 cycles.
 Requested convergence on MAX density matrix=1.00D-06.
 Requested convergence on             energy=1.00D-06.
 No special actions if energy rises.
 Integral accuracy reduced to 1.0D-05 until final iterations.
 Initial convergence to 1.0D-05 achieved.  Increase integral accuracy.
 SCF Done:  E(RB3LYP) =  -76.4148738631     A.U. after   10 cycles
            NFock= 10  Conv=0.18D-08     -V/T= 2.0111
 Calling FoFJK, ICntrl=      2127 FMM=F ISym2X=1 I1Cent= 0 IOpClX= 0 NMat=1 NMatS=1 NMatT=0.
 ***** Axes restored to original set *****
 Cartesian Forces:  Max     0.069418852 RMS     0.023130771
 CPIOFr:  IOpCl= 0 IRwI=-1 IRwCP=  731 ICalc=  3 LCPTot=        4528 Len1MO=        9888 IndFrg=       44080
 CPIOFr:  IOpCl= 0 IRwI=-2 IRwCP=20731 ICalc=  4 LCPTot=        4528 Len1MO=        9888 IndFrg=       53968
 CPIOFr:  IOpCl= 0 IRwI= 4 IRwCP=20731 ICalc=  4 LCPTot=        4528 Len1MO=        9888 IndFrg=       53968
 Counterpoise: doing calculation for fragment   2 using the basis set of the fragment.
 Basis read from rwf:  (6D, 7F)
 There are    18 symmetry adapted cartesian basis functions of A'  symmetry.
 There are     5 symmetry adapted cartesian basis functions of A"  symmetry.
 There are    18 symmetry adapted basis functions of A'  symmetry.
 There are     5 symmetry adapted basis functions of A"  symmetry.
    23 basis functions,    40 primitive gaussians,    23 cartesian basis functions
     5 alpha electrons        5 beta electrons
       nuclear repulsion energy         8.8642550303 Hartrees.
 NAtoms=    6 NActive=    3 NUniq=    3 SFac= 1.00D+00 NAtFMM=   60 NAOKFM=F Big=F
 Integral buffers will be    131072 words long.
 Raffenetti 2 integral format.
 Two-electron integral symmetry is turned on.
 One-electron integrals computed using PRISM.
 NBasis=    23 RedAO= T EigKep=  1.81D-02  NBF=    18     5
 NBsUse=    23 1.00D-06 EigRej= -1.00D+00 NBFU=    18     5
 Initial guess from the checkpoint file:  "input.chk"
 B after Tr=    -0.115177    0.183221   -0.000000
         Rot=    0.999464    0.000000    0.000000    0.032723 Ang=   3.75 deg.
 Initial guess orbital symmetries:
       Occupied  (A') (A') (A') (A') (A")
       Virtual   (A') (A') (A") (A') (A') (A') (A') (A') (A") (A')
                 (A') (A') (A') (A") (A") (A') (A') (A')
 ExpMin= 8.45D-02 ExpMax= 5.48D+03 ExpMxC= 8.25D+02 IAcc=2 IRadAn=         4 AccDes= 0.00D+00
 Harris functional with IExCor=  402 and IRadAn=       4 diagonalized for initial guess.
 HarFok:  IExCor=  402 AccDes= 0.00D+00 IRadAn=         4 IDoV= 1 UseB2=F ITyADJ=14
 ICtDFT=  3500011 ScaDFX=  1.000000  1.000000  1.000000  1.000000
 FoFCou: FMM=F IPFlag=           0 FMFlag=      100000 FMFlg1=           0
         NFxFlg=           0 DoJE=T BraDBF=F KetDBF=T FulRan=T
         wScrn=  0.000000 ICntrl=       500 IOpCl=  0 I1Cent=   200000004 NGrid=           0
         NMat0=    1 NMatS0=      1 NMatT0=    0 NMatD0=    1 NMtDS0=    0 NMtDT0=    0
 Petite list used in FoFCou.
 Keep R1 ints in memory in symmetry-blocked form, NReq=3487218.
 Requested convergence on RMS density matrix=1.00D-08 within 128 cycles.
 Requested convergence on MAX density matrix=1.00D-06.
 Requested convergence on             energy=1.00D-06.
 No special actions if energy rises.
 Integral accuracy reduced to 1.0D-05 until final iterations.
 Initial convergence to 1.0D-05 achieved.  Increase integral accuracy.
 SCF Done:  E(RB3LYP) =  -76.4177783345     A.U. after    9 cycles
            NFock=  9  Conv=0.20D-08     -V/T= 2.0100
 Calling FoFJK, ICntrl=      2127 FMM=F ISym2X=1 I1Cent= 0 IOpClX= 0 NMat=1 NMatS=1 NMatT=0.
 ***** Axes restored to original set *****
 Cartesian Forces:  Max     0.040955490 RMS     0.015039946
 CPIOFr:  IOpCl= 0 IRwI=-1 IRwCP=  731 ICalc=  4 LCPTot=        4528 Len1MO=        9888 IndFrg=       53968
 CPIOFr:  IOpCl= 0 IRwI=-2 IRwCP=  731 ICalc=  0 LCPTot=        4528 Len1MO=        9888 IndFrg=       14416
 Counterpoise corrected energy =    -152.774142795790
                   BSSE energy =       0.002657150781
              sum of fragments =    -152.832652197623
           complexation energy =      35.05 kcal/mole (raw)
           complexation energy =      36.72 kcal/mole (corrected)
 Rotating derivatives to standard orientation.
 ***** Axes restored to original set *****
 -------------------------------------------------------------------
 Center     Atomic             Integrated Forces (Hartrees/Bohr)
 Number     Number              X              Y              Z
 -------------------------------------------------------------------
      1        1          -0.113751752   -0.037687570    0.000000000
      2        1          -0.017941494   -0.017282547    0.000000000
      3        8          -0.007547878    0.036815527    0.000000000
      4        1          -0.011919067   -0.025283889    0.000000000
      5        1          -0.008041482   -0.010362428    0.000000000
      6        8           0.159201673    0.053800906    0.000000000
 -------------------------------------------------------------------
 Integrated Cartesian Forces:  Max     0.159201673 RMS     0.050324417

 GradGradGradGradGradGradGradGradGradGradGradGradGradGradGradGradGradGrad
 Berny optimization.
 Using GEDIIS/GDIIS optimizer.
 FormGI is forming the generalized inverse of G from B-inverse, IUseBI=4.
 Internal  Forces:  Max     0.139308626 RMS     0.040674320
 Search for a local minimum.
 Step number   2 out of a maximum of   24
 All quantities printed in internal units (Hartrees-Bohrs-Radians)
 Mixed Optimization -- RFO/linear search
 Update second derivatives using D2CorX and points    1    2
 DE= -6.39D-02 DEPred=-7.15D-02 R= 8.93D-01
 TightC=F SS=  1.41D+00  RLast= 3.00D-01 DXNew= 5.0454D-01 9.0000D-01
 Trust test= 8.93D-01 RLast= 3.00D-01 DXMaxT set to 5.05D-01
 The second derivative matrix:
                          R1        R2        R3        R4        R5
           R1           0.62379
           R2           0.12380   0.49510
           R3           0.00282   0.01370   0.47545
           R4           0.01820   0.02473  -0.00088   0.47812
           R5           0.00115   0.00885  -0.00101  -0.00072   0.47617
           A1           0.02989   0.01691   0.00166   0.00461   0.00099
           A2           0.00370  -0.00231   0.00078   0.00105   0.00053
           A3          -0.00872  -0.02223   0.00179   0.00054   0.00129
           A4           0.01132   0.01454  -0.00044   0.00086  -0.00037
           A5           0.01499   0.01825  -0.00045   0.00124  -0.00040
           A6          -0.00000  -0.00000   0.00000  -0.00000   0.00000
           A7           0.00000   0.00000  -0.00000   0.00000  -0.00000
           D1           0.00000   0.00000  -0.00000   0.00000  -0.00000
           D2          -0.00000  -0.00000   0.00000  -0.00000   0.00000
                          A1        A2        A3        A4        A5
           A1           0.16529
           A2           0.00023   0.15975
           A3          -0.00321  -0.00116   0.15794
           A4           0.00278   0.00060   0.00019   0.01087
           A5           0.00359   0.00073   0.00008   0.00083   0.01145
           A6          -0.00000  -0.00000  -0.00000  -0.00000  -0.00000
           A7           0.00000   0.00000   0.00000   0.00000   0.00000
           D1           0.00000   0.00000   0.00000   0.00000   0.00000
           D2          -0.00000  -0.00000  -0.00000  -0.00000  -0.00000
                          A6        A7        D1        D2
           A6           0.01028
           A7          -0.00000   0.01028
           D1          -0.00000   0.00000   0.00230
           D2           0.00000  -0.00000  -0.00000   0.00230
 ITU=  1  0
 Use linear search instead of GDIIS.
 Linear search step of   0.600 exceeds DXMaxT=   0.505 but not scaled.
 Quartic linear search produced a step of  2.00000.
 Iteration  1 RMS(Cart)=  0.21459022 RMS(Int)=  0.07329370
 Iteration  2 RMS(Cart)=  0.06892646 RMS(Int)=  0.01813597
 Iteration  3 RMS(Cart)=  0.02216229 RMS(Int)=  0.00000539
 Iteration  4 RMS(Cart)=  0.00000480 RMS(Int)=  0.00000000
 Iteration  5 RMS(Cart)=  0.00000000 RMS(Int)=  0.00000000
 ClnCor:  largest displacement from symmetrization is 2.70D-15 for atom     4.
 Variable       Old X    -DE/DX   Delta X   Delta X   Delta X     New X
                                 (Linear)    (Quad)   (Total)
    R1        1.99875   0.02525   0.21804   0.00000   0.21804   2.21678
    R2        2.12292   0.13931   0.46639   0.00000   0.46639   2.58932
    R3        1.87324  -0.01503  -0.03296   0.00000  -0.03296   1.84028
    R4        1.88783  -0.00974  -0.00380   0.00000  -0.00380   1.88402
    R5        1.87764  -0.01061  -0.02417   0.00000  -0.02417   1.85347
    A1        1.67743   0.03721   0.21326   0.00000   0.21326   1.89068
    A2        1.60554   0.00683   0.06948   0.00000   0.06948   1.67502
    A3        1.62434   0.02132   0.10710   0.00000   0.10710   1.73144
    A4        3.15019  -0.00245   0.01720   0.00000   0.01720   3.16740
    A5        3.22988   0.02814   0.17658   0.00000   0.17658   3.40646
    A6        3.14159   0.00000   0.00000   0.00000   0.00000   3.14159
    A7        3.14159  -0.00000   0.00000   0.00000   0.00000   3.14159
    D1        0.00000  -0.00000   0.00000   0.00000   0.00000   0.00000
    D2        0.00000   0.00000   0.00000   0.00000   0.00000   0.00000
         Item               Value     Threshold  Converged?
 Maximum Force            0.139309     0.000450     NO 
 RMS     Force            0.040674     0.000300     NO 
 Maximum Displacement     0.730252     0.001800     NO 
 RMS     Displacement     0.291791     0.001200     NO 
 Predicted change in Energy=-3.642008D-03
 GradGradGradGradGradGradGradGradGradGradGradGradGradGradGradGradGradGrad

                          Input orientation:                          
 ---------------------------------------------------------------------
 Center     Atomic      Atomic             Coordinates (Angstroms)
 Number     Number       Type             X           Y           Z
 ---------------------------------------------------------------------
      1          1           0        0.918041    0.069582    0.000000
      2          1           0       -0.588974    0.948113    0.000000
      3          8           0       -0.254476    0.033528    0.000000
      4          1           0        3.251724   -0.179893    0.000000
      5          1           0        2.385453    1.052327    0.000000
      6          8           0        2.288232    0.076343    0.000000
 ---------------------------------------------------------------------
                    Distance matrix (angstroms):
                    1          2          3          4          5
     1  H    0.000000
     2  H    1.744395   0.000000
     3  O    1.173072   0.973836   0.000000
     4  H    2.346979   4.002919   3.512690   0.000000
     5  H    1.766094   2.976253   2.829696   1.506251   0.000000
     6  O    1.370208   3.006377   2.543069   0.996982   0.980815
                    6
     6  O    0.000000
 Stoichiometry    H4O2
 Framework group  CS[SG(H4O2)]
 Deg. of freedom     9
 Full point group                 CS      NOp   2
 Largest Abelian subgroup         CS      NOp   2
 Largest concise Abelian subgroup C1      NOp   1
                         Standard orientation:                         
 ---------------------------------------------------------------------
 Center     Atomic      Atomic             Coordinates (Angstroms)
 Number     Number       Type             X           Y           Z
 ---------------------------------------------------------------------
      1          1           0        0.065601   -0.194905   -0.000000
      2          1           0       -0.838178   -1.686916   -0.000000
      3          8           0        0.081909   -1.367864   -0.000000
      4          1           0        0.354330    2.134246    0.000000
      5          1           0       -0.892300    1.288844    0.000000
      6          8           0        0.081909    1.175205    0.000000
 ---------------------------------------------------------------------
 Rotational constants (GHZ):         281.1084854           8.2665464           8.0303969
 CPIOFr:  IOpCl= 0 IRwI=-2 IRwCP=20731 ICalc=  0 LCPTot=        4528 Len1MO=        9888 IndFrg=       14416
 CPIOFr:  IOpCl= 0 IRwI= 4 IRwCP=20731 ICalc=  0 LCPTot=        4528 Len1MO=        9888 IndFrg=       14416
 Counterpoise: doing full-system calculation.
 Basis read from rwf:  (6D, 7F)
 There are    36 symmetry adapted cartesian basis functions of A'  symmetry.
 There are    10 symmetry adapted cartesian basis functions of A"  symmetry.
 There are    36 symmetry adapted basis functions of A'  symmetry.
 There are    10 symmetry adapted basis functions of A"  symmetry.
    46 basis functions,    80 primitive gaussians,    46 cartesian basis functions
    10 alpha electrons       10 beta electrons
       nuclear repulsion energy        38.5247471455 Hartrees.
 NAtoms=    6 NActive=    6 NUniq=    6 SFac= 1.00D+00 NAtFMM=   60 NAOKFM=F Big=F
 Integral buffers will be    131072 words long.
 Raffenetti 2 integral format.
 Two-electron integral symmetry is turned on.
 One-electron integrals computed using PRISM.
 NBasis=    46 RedAO= T EigKep=  7.81D-03  NBF=    36    10
 NBsUse=    46 1.00D-06 EigRej= -1.00D+00 NBFU=    36    10
 Initial guess from the checkpoint file:  "input.chk"
 B after Tr=     0.000000    0.000000   -0.000000
         Rot=    0.999997    0.000000    0.000000    0.002436 Ang=   0.28 deg.
 Initial guess orbital symmetries:
       Occupied  (A') (A') (A') (A') (A') (A') (A") (A') (A') (A")
       Virtual   (A') (A') (A') (A") (A') (A') (A') (A") (A') (A')
                 (A') (A') (A') (A') (A') (A") (A') (A') (A") (A')
                 (A') (A') (A') (A') (A") (A") (A') (A") (A") (A')
                 (A') (A') (A') (A') (A') (A')
 ExpMin= 8.45D-02 ExpMax= 5.48D+03 ExpMxC= 8.25D+02 IAcc=2 IRadAn=         4 AccDes= 0.00D+00
 Harris functional with IExCor=  402 and IRadAn=       4 diagonalized for initial guess.
 HarFok:  IExCor=  402 AccDes= 0.00D+00 IRadAn=         4 IDoV= 1 UseB2=F ITyADJ=14
 ICtDFT=  3500011 ScaDFX=  1.000000  1.000000  1.000000  1.000000
 FoFCou: FMM=F IPFlag=           0 FMFlag=      100000 FMFlg1=           0
         NFxFlg=           0 DoJE=T BraDBF=F KetDBF=T FulRan=T
         wScrn=  0.000000 ICntrl=       500 IOpCl=  0 I1Cent=   200000004 NGrid=           0
         NMat0=    1 NMatS0=      1 NMatT0=    0 NMatD0=    1 NMtDS0=    0 NMtDT0=    0
 Petite list used in FoFCou.
 Keep R1 ints in memory in symmetry-blocked form, NReq=4057241.
 Requested convergence on RMS density matrix=1.00D-08 within 128 cycles.
 Requested convergence on MAX density matrix=1.00D-06.
 Requested convergence on             energy=1.00D-06.
 No special actions if energy rises.
 Integral accuracy reduced to 1.0D-05 until final iterations.
 Initial convergence to 1.0D-05 achieved.  Increase integral accuracy.
 SCF Done:  E(RB3LYP) =  -152.814625704     A.U. after   12 cycles
            NFock= 12  Conv=0.24D-08     -V/T= 2.0101
 Calling FoFJK, ICntrl=      2127 FMM=F ISym2X=1 I1Cent= 0 IOpClX= 0 NMat=1 NMatS=1 NMatT=0.
 ***** Axes restored to original set *****
 Cartesian Forces:  Max     0.103920028 RMS     0.033660888
 CPIOFr:  IOpCl= 0 IRwI=-1 IRwCP=  731 ICalc= -1 LCPTot=        4528 Len1MO=        9888 IndFrg=        4528
 CPIOFr:  IOpCl= 0 IRwI=-1 IRwCP=  731 ICalc=  0 LCPTot=        4528 Len1MO=        9888 IndFrg=       14416
 CPIOFr:  IOpCl= 0 IRwI=-2 IRwCP=20731 ICalc=  1 LCPTot=        4528 Len1MO=        9888 IndFrg=       24304
 CPIOFr:  IOpCl= 0 IRwI= 4 IRwCP=20731 ICalc=  1 LCPTot=        4528 Len1MO=        9888 IndFrg=       24304
 Counterpoise: doing calculation for fragment   1 using the basis set of the full-system, NewBq=T
 Basis read from rwf:  (6D, 7F)
 There are    36 symmetry adapted cartesian basis functions of A'  symmetry.
 There are    10 symmetry adapted cartesian basis functions of A"  symmetry.
 There are    36 symmetry adapted basis functions of A'  symmetry.
 There are    10 symmetry adapted basis functions of A"  symmetry.
    46 basis functions,    80 primitive gaussians,    46 cartesian basis functions
     5 alpha electrons        5 beta electrons
       nuclear repulsion energy         8.2593481204 Hartrees.
 NAtoms=    6 NActive=    6 NUniq=    6 SFac= 1.00D+00 NAtFMM=   60 NAOKFM=F Big=F
 Integral buffers will be    131072 words long.
 Raffenetti 2 integral format.
 Two-electron integral symmetry is turned on.
 One-electron integrals computed using PRISM.
 NBasis=    46 RedAO= T EigKep=  7.81D-03  NBF=    36    10
 NBsUse=    46 1.00D-06 EigRej= -1.00D+00 NBFU=    36    10
 Initial guess from the checkpoint file:  "input.chk"
 B after Tr=     0.000000    0.000000   -0.000000
         Rot=    0.999997    0.000000    0.000000    0.002436 Ang=   0.28 deg.
 Initial guess orbital symmetries:
       Occupied  (A') (A') (A') (A') (A")
[...]
 One-electron integrals computed using PRISM.
 NBasis=    46 RedAO= T EigKep=  1.21D-02  NBF=    36    10
 NBsUse=    46 1.00D-06 EigRej= -1.00D+00 NBFU=    36    10
 Initial guess from the checkpoint file:  "input.chk"
 B after Tr=    -0.000000   -0.000000    0.000000
         Rot=    1.000000    0.000000    0.000000    0.000076 Ang=   0.01 deg.
 Initial guess orbital symmetries:
       Occupied  (A') (A') (A') (A') (A")
       Virtual   (A') (A') (A') (A") (A') (A') (A") (A') (A') (A')
                 (A') (A') (A') (A") (A') (A') (A') (A') (A") (A')
                 (A') (A') (A') (A") (A") (A') (A') (A') (A') (A')
                 (A") (A") (A') (A') (A') (A') (A') (A") (A') (A')
                 (A')
 Keep R1 ints in memory in symmetry-blocked form, NReq=4057241.
 Requested convergence on RMS density matrix=1.00D-08 within 128 cycles.
 Requested convergence on MAX density matrix=1.00D-06.
 Requested convergence on             energy=1.00D-06.
 No special actions if energy rises.
 SCF Done:  E(RB3LYP) =  -76.4230638576     A.U. after    6 cycles
            NFock=  6  Conv=0.92D-09     -V/T= 2.0093
 Calling FoFJK, ICntrl=      2127 FMM=F ISym2X=1 I1Cent= 0 IOpClX= 0 NMat=1 NMatS=1 NMatT=0.
 ***** Axes restored to original set *****
 Cartesian Forces:  Max     0.006087485 RMS     0.001987581
 CPIOFr:  IOpCl= 0 IRwI=-1 IRwCP=  731 ICalc=  1 LCPTot=        4528 Len1MO=        9888 IndFrg=       24304
 CPIOFr:  IOpCl= 0 IRwI=-2 IRwCP=20731 ICalc=  2 LCPTot=        4528 Len1MO=        9888 IndFrg=       34192
 CPIOFr:  IOpCl= 0 IRwI= 4 IRwCP=20731 ICalc=  2 LCPTot=        4528 Len1MO=        9888 IndFrg=       34192
 Counterpoise: doing calculation for fragment   2 using the basis set of the full-system, NewBq=T
 Basis read from rwf:  (6D, 7F)
 There are    36 symmetry adapted cartesian basis functions of A'  symmetry.
 There are    10 symmetry adapted cartesian basis functions of A"  symmetry.
 There are    36 symmetry adapted basis functions of A'  symmetry.
 There are    10 symmetry adapted basis functions of A"  symmetry.
    46 basis functions,    80 primitive gaussians,    46 cartesian basis functions
     5 alpha electrons        5 beta electrons
       nuclear repulsion energy         9.0812786480 Hartrees.
 NAtoms=    6 NActive=    6 NUniq=    6 SFac= 1.00D+00 NAtFMM=   60 NAOKFM=F Big=F
 Integral buffers will be    131072 words long.
 Raffenetti 2 integral format.
 Two-electron integral symmetry is turned on.
 One-electron integrals computed using PRISM.
 NBasis=    46 RedAO= T EigKep=  1.21D-02  NBF=    36    10
 NBsUse=    46 1.00D-06 EigRej= -1.00D+00 NBFU=    36    10
 Initial guess from the checkpoint file:  "input.chk"
 B after Tr=    -0.000000   -0.000000    0.000000
         Rot=    1.000000    0.000000    0.000000    0.000076 Ang=   0.01 deg.
 Initial guess orbital symmetries:
       Occupied  (A') (A') (A') (A') (A")
       Virtual   (A') (A') (A') (A") (A') (A') (A") (A') (A') (A')
                 (A') (A') (A') (A") (A') (A') (A') (A') (A") (A')
                 (A') (A') (A") (A") (A') (A') (A') (A') (A') (A')
                 (A") (A") (A') (A') (A') (A') (A') (A") (A') (A')
                 (A')
 Keep R1 ints in memory in symmetry-blocked form, NReq=4057241.
 Requested convergence on RMS density matrix=1.00D-08 within 128 cycles.
 Requested convergence on MAX density matrix=1.00D-06.
 Requested convergence on             energy=1.00D-06.
 No special actions if energy rises.
 SCF Done:  E(RB3LYP) =  -76.4233888414     A.U. after    6 cycles
            NFock=  6  Conv=0.14D-08     -V/T= 2.0093
 Calling FoFJK, ICntrl=      2127 FMM=F ISym2X=1 I1Cent= 0 IOpClX= 0 NMat=1 NMatS=1 NMatT=0.
 ***** Axes restored to original set *****
 Cartesian Forces:  Max     0.003149824 RMS     0.000944447
 CPIOFr:  IOpCl= 0 IRwI=-1 IRwCP=  731 ICalc=  2 LCPTot=        4528 Len1MO=        9888 IndFrg=       34192
 CPIOFr:  IOpCl= 0 IRwI=-2 IRwCP=20731 ICalc=  3 LCPTot=        4528 Len1MO=        9888 IndFrg=       44080
 CPIOFr:  IOpCl= 0 IRwI= 4 IRwCP=20731 ICalc=  3 LCPTot=        4528 Len1MO=        9888 IndFrg=       44080
 Counterpoise: doing calculation for fragment   1 using the basis set of the fragment.
 Basis read from rwf:  (6D, 7F)
 There are    18 symmetry adapted cartesian basis functions of A'  symmetry.
 There are     5 symmetry adapted cartesian basis functions of A"  symmetry.
 There are    18 symmetry adapted basis functions of A'  symmetry.
 There are     5 symmetry adapted basis functions of A"  symmetry.
    23 basis functions,    40 primitive gaussians,    23 cartesian basis functions
     5 alpha electrons        5 beta electrons
       nuclear repulsion energy         9.0582465473 Hartrees.
 NAtoms=    6 NActive=    3 NUniq=    3 SFac= 1.00D+00 NAtFMM=   60 NAOKFM=F Big=F
 Integral buffers will be    131072 words long.
 Raffenetti 2 integral format.
 Two-electron integral symmetry is turned on.
 One-electron integrals computed using PRISM.
 NBasis=    23 RedAO= T EigKep=  1.83D-02  NBF=    18     5
 NBsUse=    23 1.00D-06 EigRej= -1.00D+00 NBFU=    18     5
 Initial guess from the checkpoint file:  "input.chk"
 B after Tr=    -0.005046   -0.000172    0.000000
         Rot=    1.000000    0.000000    0.000000   -0.000824 Ang=  -0.09 deg.
 Initial guess orbital symmetries:
       Occupied  (A') (A') (A') (A') (A")
       Virtual   (A') (A') (A") (A') (A') (A') (A') (A') (A') (A")
                 (A') (A') (A') (A") (A") (A') (A') (A')
 Keep R1 ints in memory in symmetry-blocked form, NReq=3487218.
 Requested convergence on RMS density matrix=1.00D-08 within 128 cycles.
 Requested convergence on MAX density matrix=1.00D-06.
 Requested convergence on             energy=1.00D-06.
 No special actions if energy rises.
 SCF Done:  E(RB3LYP) =  -76.4225367394     A.U. after    5 cycles
            NFock=  5  Conv=0.32D-08     -V/T= 2.0093
 Calling FoFJK, ICntrl=      2127 FMM=F ISym2X=1 I1Cent= 0 IOpClX= 0 NMat=1 NMatS=1 NMatT=0.
 ***** Axes restored to original set *****
 Cartesian Forces:  Max     0.005881603 RMS     0.001987862
 CPIOFr:  IOpCl= 0 IRwI=-1 IRwCP=  731 ICalc=  3 LCPTot=        4528 Len1MO=        9888 IndFrg=       44080
 CPIOFr:  IOpCl= 0 IRwI=-2 IRwCP=20731 ICalc=  4 LCPTot=        4528 Len1MO=        9888 IndFrg=       53968
 CPIOFr:  IOpCl= 0 IRwI= 4 IRwCP=20731 ICalc=  4 LCPTot=        4528 Len1MO=        9888 IndFrg=       53968
 Counterpoise: doing calculation for fragment   2 using the basis set of the fragment.
 Basis read from rwf:  (6D, 7F)
 There are    18 symmetry adapted cartesian basis functions of A'  symmetry.
 There are     5 symmetry adapted cartesian basis functions of A"  symmetry.
 There are    18 symmetry adapted basis functions of A'  symmetry.
 There are     5 symmetry adapted basis functions of A"  symmetry.
    23 basis functions,    40 primitive gaussians,    23 cartesian basis functions
     5 alpha electrons        5 beta electrons
       nuclear repulsion energy         9.0812786480 Hartrees.
 NAtoms=    6 NActive=    3 NUniq=    3 SFac= 1.00D+00 NAtFMM=   60 NAOKFM=F Big=F
 Integral buffers will be    131072 words long.
 Raffenetti 2 integral format.
 Two-electron integral symmetry is turned on.
 One-electron integrals computed using PRISM.
 NBasis=    23 RedAO= T EigKep=  1.83D-02  NBF=    18     5
 NBsUse=    23 1.00D-06 EigRej= -1.00D+00 NBFU=    18     5
 Initial guess from the checkpoint file:  "input.chk"
 B after Tr=    -0.007307    0.000781    0.000000
         Rot=    0.999999    0.000000   -0.000000    0.001354 Ang=   0.16 deg.
 Initial guess orbital symmetries:
       Occupied  (A') (A') (A') (A') (A")
       Virtual   (A') (A') (A") (A') (A') (A') (A') (A') (A') (A")
                 (A') (A') (A') (A") (A") (A') (A') (A')
 Keep R1 ints in memory in symmetry-blocked form, NReq=3487218.
 Requested convergence on RMS density matrix=1.00D-08 within 128 cycles.
 Requested convergence on MAX density matrix=1.00D-06.
 Requested convergence on             energy=1.00D-06.
 No special actions if energy rises.
 SCF Done:  E(RB3LYP) =  -76.4225523940     A.U. after    5 cycles
            NFock=  5  Conv=0.68D-08     -V/T= 2.0092
 Calling FoFJK, ICntrl=      2127 FMM=F ISym2X=1 I1Cent= 0 IOpClX= 0 NMat=1 NMatS=1 NMatT=0.
 ***** Axes restored to original set *****
 Cartesian Forces:  Max     0.002040820 RMS     0.000694310
 CPIOFr:  IOpCl= 0 IRwI=-1 IRwCP=  731 ICalc=  4 LCPTot=        4528 Len1MO=        9888 IndFrg=       53968
 CPIOFr:  IOpCl= 0 IRwI=-2 IRwCP=  731 ICalc=  0 LCPTot=        4528 Len1MO=        9888 IndFrg=       14416
 Counterpoise corrected energy =    -152.852532542597
                   BSSE energy =       0.001363565657
              sum of fragments =    -152.845089133312
           complexation energy =      -5.53 kcal/mole (raw)
           complexation energy =      -4.67 kcal/mole (corrected)
 Rotating derivatives to standard orientation.
 ***** Axes restored to original set *****
 -------------------------------------------------------------------
 Center     Atomic             Integrated Forces (Hartrees/Bohr)
 Number     Number              X              Y              Z
 -------------------------------------------------------------------
      1        1           0.000005087    0.000002036    0.000000000
      2        1          -0.000001259   -0.000002885    0.000000000
      3        8          -0.000005300    0.000002047    0.000000000
      4        1           0.000005226   -0.000005425    0.000000000
      5        1           0.000001252   -0.000000201    0.000000000
      6        8          -0.000005007    0.000004427    0.000000000
 -------------------------------------------------------------------
 Integrated Cartesian Forces:  Max     0.000005425 RMS     0.000003120

 GradGradGradGradGradGradGradGradGradGradGradGradGradGradGradGradGradGrad
 Berny optimization.
 Using GEDIIS/GDIIS optimizer.
 FormGI is forming the generalized inverse of G from B-inverse, IUseBI=4.
 Internal  Forces:  Max     0.000007175 RMS     0.000003136
 Search for a local minimum.
 Step number  17 out of a maximum of   24
 All quantities printed in internal units (Hartrees-Bohrs-Radians)
 Mixed Optimization -- En-DIIS/RFO-DIIS
 Swapping is turned off.
 Update second derivatives using D2CorX and points    7    8    9   10   11
                                                     12   13   14   15   16
                                                     17
 DE= -4.81D-08 DEPred=-4.21D-08 R= 1.14D+00
 Trust test= 1.14D+00 RLast= 3.90D-03 DXMaxT set to 1.43D+00
 The second derivative matrix:
                          R1        R2        R3        R4        R5
           R1           0.61125
           R2           0.01279   0.00999
           R3          -0.02360  -0.00032   0.50449
           R4           0.04367   0.00139   0.01833   0.49973
           R5           0.00322   0.00023  -0.00436  -0.00939   0.47220
           A1           0.03290   0.00243   0.00469   0.01779   0.00132
           A2           0.02889  -0.00005   0.00402   0.01246   0.00424
           A3           0.04684   0.00389   0.01185   0.03849   0.01937
           A4          -0.01873  -0.00029   0.00239  -0.00200  -0.00206
           A5          -0.01075   0.00035  -0.00578  -0.01372  -0.00161
           A6          -0.00000  -0.00000  -0.00000  -0.00000  -0.00000
           A7           0.00000   0.00000   0.00000   0.00000   0.00000
           D1           0.00000   0.00000   0.00000   0.00000   0.00000
           D2          -0.00000  -0.00000  -0.00000  -0.00000  -0.00000
                          A1        A2        A3        A4        A5
           A1           0.17835
           A2          -0.00751   0.02887
           A3          -0.00473  -0.01825   0.11054
           A4          -0.00405  -0.00726  -0.00507   0.01282
           A5           0.00823  -0.01839   0.02286  -0.00373   0.02487
           A6           0.00000   0.00000  -0.00000   0.00000  -0.00000
           A7          -0.00000  -0.00000   0.00000  -0.00000   0.00000
           D1          -0.00000  -0.00000   0.00000  -0.00000   0.00000
           D2           0.00000   0.00000  -0.00000   0.00000  -0.00000
                          A6        A7        D1        D2
           A6           0.01028
           A7          -0.00000   0.01028
           D1          -0.00000   0.00000   0.00230
           D2           0.00000  -0.00000  -0.00000   0.00230
 ITU=  0  0  0  0  0  0  0  1  1  1  1  1  1  1  0
     Eigenvalues ---    0.00230   0.00255   0.00776   0.00962   0.01028
     Eigenvalues ---    0.01775   0.11379   0.17516   0.46356   0.47490
     Eigenvalues ---    0.52233   0.63385
 En-DIIS/RFO-DIIS/Sim-DIIS IScMMF=       -3 using points:    17   16   15   14   13   12   11   10    9
 RFO step:  Lambda=-4.65992821D-10.
 DIIS inversion failure, remove point   9.
 DIIS inversion failure, remove point   8.
 DIIS inversion failure, remove point   7.
 DIIS inversion failure, remove point   6.
 DIIS inversion failure, remove point   5.
 DIIS inversion failure, remove point   4.
 RFO-DIIS uses    3 points instead of    9
 DidBck=F Rises=F RFO-DIIS coefs:    1.16676   -0.21405    0.04729    0.00000    0.00000
                  RFO-DIIS coefs:    0.00000    0.00000    0.00000    0.00000
 Iteration  1 RMS(Cart)=  0.00010585 RMS(Int)=  0.00000001
 Iteration  2 RMS(Cart)=  0.00000001 RMS(Int)=  0.00000000
 ClnCor:  largest displacement from symmetrization is 1.47D-14 for atom     6.
 Variable       Old X    -DE/DX   Delta X   Delta X   Delta X     New X
                                 (Linear)    (Quad)   (Total)
    R1        1.84231   0.00001   0.00002  -0.00000   0.00001   1.84232
    R2        3.77100   0.00000   0.00018  -0.00005   0.00013   3.77113
    R3        1.82891  -0.00000  -0.00000  -0.00000  -0.00000   1.82890
    R4        1.83132   0.00001   0.00001   0.00000   0.00001   1.83134
    R5        1.82993   0.00000   0.00000  -0.00000   0.00000   1.82993
    A1        1.84532   0.00001   0.00002   0.00002   0.00003   1.84535
    A2        2.50052  -0.00000  -0.00001  -0.00004  -0.00005   2.50047
    A3        1.85701  -0.00000  -0.00002   0.00000  -0.00002   1.85699
    A4        3.40426   0.00000   0.00010   0.00008   0.00018   3.40445
    A5        4.35752  -0.00000  -0.00003  -0.00003  -0.00006   4.35746
    A6        3.14159  -0.00000   0.00000   0.00000   0.00000   3.14159
    A7        3.14159  -0.00000   0.00000   0.00000   0.00000   3.14159
    D1        0.00000  -0.00000   0.00000   0.00000   0.00000   0.00000
    D2        0.00000  -0.00000   0.00000   0.00000   0.00000   0.00000
         Item               Value     Threshold  Converged?
 Maximum Force            0.000007     0.000450     YES
 RMS     Force            0.000003     0.000300     YES
 Maximum Displacement     0.000222     0.001800     YES
 RMS     Displacement     0.000106     0.001200     YES
 Predicted change in Energy=-5.119036D-10
 Optimization completed.
    -- Stationary point found.
                           ----------------------------
                           !   Optimized Parameters   !
                           ! (Angstroms and Degrees)  !
 --------------------------                            --------------------------
 ! Name  Definition              Value          Derivative Info.                !
 --------------------------------------------------------------------------------
 ! R1    R(1,3)                  0.9749         -DE/DX =    0.0                 !
 ! R2    R(1,6)                  1.9955         -DE/DX =    0.0                 !
 ! R3    R(2,3)                  0.9678         -DE/DX =    0.0                 !
 ! R4    R(4,6)                  0.9691         -DE/DX =    0.0                 !
 ! R5    R(5,6)                  0.9684         -DE/DX =    0.0                 !
 ! A1    A(1,3,2)              105.7289         -DE/DX =    0.0                 !
 ! A2    A(1,6,5)              143.2691         -DE/DX =    0.0                 !
 ! A3    A(4,6,5)              106.3986         -DE/DX =    0.0                 !
 ! A4    L(3,1,6,2,-1)         195.0498         -DE/DX =    0.0                 !
 ! A5    L(1,6,4,5,-1)         249.6677         -DE/DX =    0.0                 !
 ! A6    L(3,1,6,2,-2)         180.0            -DE/DX =    0.0                 !
 ! A7    L(1,6,4,5,-2)         180.0            -DE/DX =    0.0                 !
 ! D1    D(6,1,5,4)              0.0            -DE/DX =    0.0                 !
 ! D2    D(2,3,6,5)              0.0            -DE/DX =    0.0                 !
 --------------------------------------------------------------------------------
 GradGradGradGradGradGradGradGradGradGradGradGradGradGradGradGradGradGrad

                          Input orientation:                          
 ---------------------------------------------------------------------
 Center     Atomic      Atomic             Coordinates (Angstroms)
 Number     Number       Type             X           Y           Z
 ---------------------------------------------------------------------
      1          1           0        0.551780    0.242042    0.000000
      2          1           0       -0.942719    0.648424    0.000000
      3          8           0       -0.353628   -0.119457    0.000000
      4          1           0        2.974292   -0.387710    0.000000
      5          1           0        3.236661    1.141308    0.000000
      6          8           0        2.533614    0.475394    0.000000
 ---------------------------------------------------------------------
                    Distance matrix (angstroms):
                    1          2          3          4          5
     1  H    0.000000
     2  H    1.548765   0.000000
     3  O    0.974908   0.967817   0.000000
     4  H    2.503029   4.051734   3.338714   0.000000
     5  H    2.831478   4.208343   3.805221   1.551365   0.000000
     6  O    1.995525   3.480637   2.947883   0.969095   0.968358
                    6
     6  O    0.000000
 Stoichiometry    H4O2
 Framework group  CS[SG(H4O2)]
 Deg. of freedom     9
 Full point group                 CS      NOp   2
 Largest Abelian subgroup         CS      NOp   2
 Largest concise Abelian subgroup C1      NOp   1
                         Standard orientation:                         
 ---------------------------------------------------------------------
 Center     Atomic      Atomic             Coordinates (Angstroms)
 Number     Number       Type             X           Y           Z
 ---------------------------------------------------------------------
      1          1           0       -0.140442   -0.595118    0.000000
      2          1           0       -0.840038   -1.976870    0.000000
      3          8           0        0.030920   -1.554847    0.000000
      4          1           0        0.965192    1.650484    0.000000
      5          1           0       -0.479429    2.215995    0.000000
      6          8           0        0.030920    1.393036    0.000000
 ---------------------------------------------------------------------
 Rotational constants (GHZ):         271.2465803           6.1847277           6.0468527
 1\1\GINC-NODE3202\FOpt\RB3LYP\6-31+G(d)\H4O2\VSC41947\21-Nov-2019\0\\#
 n B3LYP/6-31+G(d) opt Counterpoise(2)\\no title\\0,1\H,0.5517796899,0.
 2420422509,0.\H,-0.9427191917,0.6484237133,0.\O,-0.353627966,-0.119457
 4604,0.\H,2.9742920993,-0.3877100868,0.\H,3.2366610019,1.1413080686,0.
 \O,2.5336143667,0.4753935145,0.\\Version=ES64L-G16RevA.03\HF=-76.42255
 24\RMSD=6.773e-09\RMSF=3.120e-06\Dipole=0.9813176,-1.1419244,0.\PG=CS 
 [SG(H4O2)]\\@


  DISAPPOINTMENT IS THE NURSE OF WISDOM.               
                              SIR BOYLE ROCHE                 
 Job cpu time:       0 days  0 hours  6 minutes 11.7 seconds.
 Elapsed time:       0 days  0 hours  1 minutes 54.5 seconds.
 File lengths (MBytes):  RWF=     17 Int=      0 D2E=      0 Chk=      2 Scr=      2
 Normal termination of Gaussian 16 at Thu Nov 21 17:27:16 2019.
